V -t * -v 1.0a5 -a 0
A -t * -n 1 -p 0 -o 0x7fffffff -c 30 -a 1
A -t * -h 1 -m 1073741823 -s 0
c -t * -i 8 -n purple
c -t * -i 4 -n yellow
c -t * -i 0 -n magenta
c -t * -i 5 -n blue
c -t * -i 1 -n red
c -t * -i 6 -n black
c -t * -i 2 -n green
c -t * -i 7 -n brown
c -t * -i 3 -n orange
n -t * -a 4 -s 4 -S UP -v circle -c black -i black
n -t * -a 0 -s 0 -S UP -v circle -c black -i black
n -t * -a 5 -s 5 -S UP -v circle -c black -i black
n -t * -a 1 -s 1 -S UP -v circle -c black -i black
n -t * -a 2 -s 2 -S UP -v circle -c black -i black
n -t * -a 3 -s 3 -S UP -v circle -c black -i black
l -t * -s 0 -d 1 -S UP -r 512000 -D 0.01 -c black
l -t * -s 1 -d 2 -S UP -r 512000 -D 0.01 -c black
l -t * -s 2 -d 3 -S UP -r 512000 -D 0.01 -c black
l -t * -s 3 -d 4 -S UP -r 512000 -D 0.01 -c black
l -t * -s 4 -d 5 -S UP -r 512000 -D 0.01 -c black
l -t * -s 5 -d 0 -S UP -r 512000 -D 0.01 -c black
+ -t 0.000169788487334637 -s 0 -d 1 -p rtProtoDV -e 6 -c 0 -i 0 -a 0 -x {0.2 1.1 -1 ------- null}
- -t 0.000169788487334637 -s 0 -d 1 -p rtProtoDV -e 6 -c 0 -i 0 -a 0 -x {0.2 1.1 -1 ------- null}
h -t 0.000169788487334637 -s 0 -d 1 -p rtProtoDV -e 6 -c 0 -i 0 -a 0 -x {0.2 1.1 -1 ------- null}
+ -t 0.000169788487334637 -s 0 -d 5 -p rtProtoDV -e 6 -c 0 -i 1 -a 0 -x {0.2 5.2 -1 ------- null}
- -t 0.000169788487334637 -s 0 -d 5 -p rtProtoDV -e 6 -c 0 -i 1 -a 0 -x {0.2 5.2 -1 ------- null}
h -t 0.000169788487334637 -s 0 -d 5 -p rtProtoDV -e 6 -c 0 -i 1 -a 0 -x {0.2 5.2 -1 ------- null}
+ -t 0.00710233021858257 -s 2 -d 1 -p rtProtoDV -e 6 -c 0 -i 2 -a 0 -x {2.2 1.1 -1 ------- null}
- -t 0.00710233021858257 -s 2 -d 1 -p rtProtoDV -e 6 -c 0 -i 2 -a 0 -x {2.2 1.1 -1 ------- null}
h -t 0.00710233021858257 -s 2 -d 1 -p rtProtoDV -e 6 -c 0 -i 2 -a 0 -x {2.2 1.1 -1 ------- null}
+ -t 0.00710233021858257 -s 2 -d 3 -p rtProtoDV -e 6 -c 0 -i 3 -a 0 -x {2.2 3.2 -1 ------- null}
- -t 0.00710233021858257 -s 2 -d 3 -p rtProtoDV -e 6 -c 0 -i 3 -a 0 -x {2.2 3.2 -1 ------- null}
h -t 0.00710233021858257 -s 2 -d 3 -p rtProtoDV -e 6 -c 0 -i 3 -a 0 -x {2.2 3.2 -1 ------- null}
r -t 0.0102635384873346 -s 0 -d 1 -p rtProtoDV -e 6 -c 0 -i 0 -a 0 -x {0.2 1.1 -1 ------- null}
+ -t 0.0102635384873346 -s 1 -d 0 -p rtProtoDV -e 6 -c 0 -i 4 -a 0 -x {1.1 0.2 -1 ------- null}
- -t 0.0102635384873346 -s 1 -d 0 -p rtProtoDV -e 6 -c 0 -i 4 -a 0 -x {1.1 0.2 -1 ------- null}
h -t 0.0102635384873346 -s 1 -d 0 -p rtProtoDV -e 6 -c 0 -i 4 -a 0 -x {1.1 0.2 -1 ------- null}
+ -t 0.0102635384873346 -s 1 -d 2 -p rtProtoDV -e 6 -c 0 -i 5 -a 0 -x {1.1 2.2 -1 ------- null}
- -t 0.0102635384873346 -s 1 -d 2 -p rtProtoDV -e 6 -c 0 -i 5 -a 0 -x {1.1 2.2 -1 ------- null}
h -t 0.0102635384873346 -s 1 -d 2 -p rtProtoDV -e 6 -c 0 -i 5 -a 0 -x {1.1 2.2 -1 ------- null}
r -t 0.0102635384873346 -s 0 -d 5 -p rtProtoDV -e 6 -c 0 -i 1 -a 0 -x {0.2 5.2 -1 ------- null}
+ -t 0.0102635384873346 -s 5 -d 0 -p rtProtoDV -e 6 -c 0 -i 6 -a 0 -x {5.2 0.2 -1 ------- null}
- -t 0.0102635384873346 -s 5 -d 0 -p rtProtoDV -e 6 -c 0 -i 6 -a 0 -x {5.2 0.2 -1 ------- null}
h -t 0.0102635384873346 -s 5 -d 0 -p rtProtoDV -e 6 -c 0 -i 6 -a 0 -x {5.2 0.2 -1 ------- null}
+ -t 0.0102635384873346 -s 5 -d 4 -p rtProtoDV -e 6 -c 0 -i 7 -a 0 -x {5.2 4.1 -1 ------- null}
- -t 0.0102635384873346 -s 5 -d 4 -p rtProtoDV -e 6 -c 0 -i 7 -a 0 -x {5.2 4.1 -1 ------- null}
h -t 0.0102635384873346 -s 5 -d 4 -p rtProtoDV -e 6 -c 0 -i 7 -a 0 -x {5.2 4.1 -1 ------- null}
r -t 0.0171960802185826 -s 2 -d 1 -p rtProtoDV -e 6 -c 0 -i 2 -a 0 -x {2.2 1.1 -1 ------- null}
+ -t 0.0171960802185826 -s 1 -d 0 -p rtProtoDV -e 6 -c 0 -i 8 -a 0 -x {1.1 0.2 -1 ------- null}
- -t 0.0171960802185826 -s 1 -d 0 -p rtProtoDV -e 6 -c 0 -i 8 -a 0 -x {1.1 0.2 -1 ------- null}
h -t 0.0171960802185826 -s 1 -d 0 -p rtProtoDV -e 6 -c 0 -i 8 -a 0 -x {1.1 0.2 -1 ------- null}
+ -t 0.0171960802185826 -s 1 -d 2 -p rtProtoDV -e 6 -c 0 -i 9 -a 0 -x {1.1 2.2 -1 ------- null}
- -t 0.0171960802185826 -s 1 -d 2 -p rtProtoDV -e 6 -c 0 -i 9 -a 0 -x {1.1 2.2 -1 ------- null}
h -t 0.0171960802185826 -s 1 -d 2 -p rtProtoDV -e 6 -c 0 -i 9 -a 0 -x {1.1 2.2 -1 ------- null}
r -t 0.0171960802185826 -s 2 -d 3 -p rtProtoDV -e 6 -c 0 -i 3 -a 0 -x {2.2 3.2 -1 ------- null}
+ -t 0.0171960802185826 -s 3 -d 2 -p rtProtoDV -e 6 -c 0 -i 10 -a 0 -x {3.2 2.2 -1 ------- null}
- -t 0.0171960802185826 -s 3 -d 2 -p rtProtoDV -e 6 -c 0 -i 10 -a 0 -x {3.2 2.2 -1 ------- null}
h -t 0.0171960802185826 -s 3 -d 2 -p rtProtoDV -e 6 -c 0 -i 10 -a 0 -x {3.2 2.2 -1 ------- null}
+ -t 0.0171960802185826 -s 3 -d 4 -p rtProtoDV -e 6 -c 0 -i 11 -a 0 -x {3.2 4.1 -1 ------- null}
- -t 0.0171960802185826 -s 3 -d 4 -p rtProtoDV -e 6 -c 0 -i 11 -a 0 -x {3.2 4.1 -1 ------- null}
h -t 0.0171960802185826 -s 3 -d 4 -p rtProtoDV -e 6 -c 0 -i 11 -a 0 -x {3.2 4.1 -1 ------- null}
r -t 0.0203572884873346 -s 1 -d 0 -p rtProtoDV -e 6 -c 0 -i 4 -a 0 -x {1.1 0.2 -1 ------- null}
+ -t 0.0203572884873346 -s 0 -d 1 -p rtProtoDV -e 6 -c 0 -i 12 -a 0 -x {0.2 1.1 -1 ------- null}
- -t 0.0203572884873346 -s 0 -d 1 -p rtProtoDV -e 6 -c 0 -i 12 -a 0 -x {0.2 1.1 -1 ------- null}
h -t 0.0203572884873346 -s 0 -d 1 -p rtProtoDV -e 6 -c 0 -i 12 -a 0 -x {0.2 1.1 -1 ------- null}
+ -t 0.0203572884873346 -s 0 -d 5 -p rtProtoDV -e 6 -c 0 -i 13 -a 0 -x {0.2 5.2 -1 ------- null}
- -t 0.0203572884873346 -s 0 -d 5 -p rtProtoDV -e 6 -c 0 -i 13 -a 0 -x {0.2 5.2 -1 ------- null}
h -t 0.0203572884873346 -s 0 -d 5 -p rtProtoDV -e 6 -c 0 -i 13 -a 0 -x {0.2 5.2 -1 ------- null}
r -t 0.0203572884873346 -s 1 -d 2 -p rtProtoDV -e 6 -c 0 -i 5 -a 0 -x {1.1 2.2 -1 ------- null}
+ -t 0.0203572884873346 -s 2 -d 1 -p rtProtoDV -e 6 -c 0 -i 14 -a 0 -x {2.2 1.1 -1 ------- null}
- -t 0.0203572884873346 -s 2 -d 1 -p rtProtoDV -e 6 -c 0 -i 14 -a 0 -x {2.2 1.1 -1 ------- null}
h -t 0.0203572884873346 -s 2 -d 1 -p rtProtoDV -e 6 -c 0 -i 14 -a 0 -x {2.2 1.1 -1 ------- null}
+ -t 0.0203572884873346 -s 2 -d 3 -p rtProtoDV -e 6 -c 0 -i 15 -a 0 -x {2.2 3.2 -1 ------- null}
- -t 0.0203572884873346 -s 2 -d 3 -p rtProtoDV -e 6 -c 0 -i 15 -a 0 -x {2.2 3.2 -1 ------- null}
h -t 0.0203572884873346 -s 2 -d 3 -p rtProtoDV -e 6 -c 0 -i 15 -a 0 -x {2.2 3.2 -1 ------- null}
r -t 0.0203572884873346 -s 5 -d 0 -p rtProtoDV -e 6 -c 0 -i 6 -a 0 -x {5.2 0.2 -1 ------- null}
+ -t 0.0203572884873346 -s 0 -d 1 -p rtProtoDV -e 6 -c 0 -i 16 -a 0 -x {0.2 1.1 -1 ------- null}
+ -t 0.0203572884873346 -s 0 -d 5 -p rtProtoDV -e 6 -c 0 -i 17 -a 0 -x {0.2 5.2 -1 ------- null}
r -t 0.0203572884873346 -s 5 -d 4 -p rtProtoDV -e 6 -c 0 -i 7 -a 0 -x {5.2 4.1 -1 ------- null}
+ -t 0.0203572884873346 -s 4 -d 3 -p rtProtoDV -e 6 -c 0 -i 18 -a 0 -x {4.1 3.2 -1 ------- null}
- -t 0.0203572884873346 -s 4 -d 3 -p rtProtoDV -e 6 -c 0 -i 18 -a 0 -x {4.1 3.2 -1 ------- null}
h -t 0.0203572884873346 -s 4 -d 3 -p rtProtoDV -e 6 -c 0 -i 18 -a 0 -x {4.1 3.2 -1 ------- null}
+ -t 0.0203572884873346 -s 4 -d 5 -p rtProtoDV -e 6 -c 0 -i 19 -a 0 -x {4.1 5.2 -1 ------- null}
- -t 0.0203572884873346 -s 4 -d 5 -p rtProtoDV -e 6 -c 0 -i 19 -a 0 -x {4.1 5.2 -1 ------- null}
h -t 0.0203572884873346 -s 4 -d 5 -p rtProtoDV -e 6 -c 0 -i 19 -a 0 -x {4.1 5.2 -1 ------- null}
- -t 0.0204510384873346 -s 0 -d 1 -p rtProtoDV -e 6 -c 0 -i 16 -a 0 -x {0.2 1.1 -1 ------- null}
h -t 0.0204510384873346 -s 0 -d 1 -p rtProtoDV -e 6 -c 0 -i 16 -a 0 -x {0.2 1.1 -1 ------- null}
- -t 0.0204510384873346 -s 0 -d 5 -p rtProtoDV -e 6 -c 0 -i 17 -a 0 -x {0.2 5.2 -1 ------- null}
h -t 0.0204510384873346 -s 0 -d 5 -p rtProtoDV -e 6 -c 0 -i 17 -a 0 -x {0.2 5.2 -1 ------- null}
r -t 0.0272898302185826 -s 1 -d 0 -p rtProtoDV -e 6 -c 0 -i 8 -a 0 -x {1.1 0.2 -1 ------- null}
+ -t 0.0272898302185826 -s 0 -d 1 -p rtProtoDV -e 6 -c 0 -i 20 -a 0 -x {0.2 1.1 -1 ------- null}
- -t 0.0272898302185826 -s 0 -d 1 -p rtProtoDV -e 6 -c 0 -i 20 -a 0 -x {0.2 1.1 -1 ------- null}
h -t 0.0272898302185826 -s 0 -d 1 -p rtProtoDV -e 6 -c 0 -i 20 -a 0 -x {0.2 1.1 -1 ------- null}
+ -t 0.0272898302185826 -s 0 -d 5 -p rtProtoDV -e 6 -c 0 -i 21 -a 0 -x {0.2 5.2 -1 ------- null}
- -t 0.0272898302185826 -s 0 -d 5 -p rtProtoDV -e 6 -c 0 -i 21 -a 0 -x {0.2 5.2 -1 ------- null}
h -t 0.0272898302185826 -s 0 -d 5 -p rtProtoDV -e 6 -c 0 -i 21 -a 0 -x {0.2 5.2 -1 ------- null}
r -t 0.0272898302185826 -s 1 -d 2 -p rtProtoDV -e 6 -c 0 -i 9 -a 0 -x {1.1 2.2 -1 ------- null}
r -t 0.0272898302185826 -s 3 -d 2 -p rtProtoDV -e 6 -c 0 -i 10 -a 0 -x {3.2 2.2 -1 ------- null}
+ -t 0.0272898302185826 -s 2 -d 1 -p rtProtoDV -e 6 -c 0 -i 22 -a 0 -x {2.2 1.1 -1 ------- null}
- -t 0.0272898302185826 -s 2 -d 1 -p rtProtoDV -e 6 -c 0 -i 22 -a 0 -x {2.2 1.1 -1 ------- null}
h -t 0.0272898302185826 -s 2 -d 1 -p rtProtoDV -e 6 -c 0 -i 22 -a 0 -x {2.2 1.1 -1 ------- null}
+ -t 0.0272898302185826 -s 2 -d 3 -p rtProtoDV -e 6 -c 0 -i 23 -a 0 -x {2.2 3.2 -1 ------- null}
- -t 0.0272898302185826 -s 2 -d 3 -p rtProtoDV -e 6 -c 0 -i 23 -a 0 -x {2.2 3.2 -1 ------- null}
h -t 0.0272898302185826 -s 2 -d 3 -p rtProtoDV -e 6 -c 0 -i 23 -a 0 -x {2.2 3.2 -1 ------- null}
r -t 0.0272898302185826 -s 3 -d 4 -p rtProtoDV -e 6 -c 0 -i 11 -a 0 -x {3.2 4.1 -1 ------- null}
+ -t 0.0272898302185826 -s 4 -d 3 -p rtProtoDV -e 6 -c 0 -i 24 -a 0 -x {4.1 3.2 -1 ------- null}
- -t 0.0272898302185826 -s 4 -d 3 -p rtProtoDV -e 6 -c 0 -i 24 -a 0 -x {4.1 3.2 -1 ------- null}
h -t 0.0272898302185826 -s 4 -d 3 -p rtProtoDV -e 6 -c 0 -i 24 -a 0 -x {4.1 3.2 -1 ------- null}
+ -t 0.0272898302185826 -s 4 -d 5 -p rtProtoDV -e 6 -c 0 -i 25 -a 0 -x {4.1 5.2 -1 ------- null}
- -t 0.0272898302185826 -s 4 -d 5 -p rtProtoDV -e 6 -c 0 -i 25 -a 0 -x {4.1 5.2 -1 ------- null}
h -t 0.0272898302185826 -s 4 -d 5 -p rtProtoDV -e 6 -c 0 -i 25 -a 0 -x {4.1 5.2 -1 ------- null}
r -t 0.0304510384873346 -s 0 -d 1 -p rtProtoDV -e 6 -c 0 -i 12 -a 0 -x {0.2 1.1 -1 ------- null}
r -t 0.0304510384873346 -s 0 -d 5 -p rtProtoDV -e 6 -c 0 -i 13 -a 0 -x {0.2 5.2 -1 ------- null}
+ -t 0.0304510384873346 -s 5 -d 0 -p rtProtoDV -e 6 -c 0 -i 26 -a 0 -x {5.2 0.2 -1 ------- null}
- -t 0.0304510384873346 -s 5 -d 0 -p rtProtoDV -e 6 -c 0 -i 26 -a 0 -x {5.2 0.2 -1 ------- null}
h -t 0.0304510384873346 -s 5 -d 0 -p rtProtoDV -e 6 -c 0 -i 26 -a 0 -x {5.2 0.2 -1 ------- null}
+ -t 0.0304510384873346 -s 5 -d 4 -p rtProtoDV -e 6 -c 0 -i 27 -a 0 -x {5.2 4.1 -1 ------- null}
- -t 0.0304510384873346 -s 5 -d 4 -p rtProtoDV -e 6 -c 0 -i 27 -a 0 -x {5.2 4.1 -1 ------- null}
h -t 0.0304510384873346 -s 5 -d 4 -p rtProtoDV -e 6 -c 0 -i 27 -a 0 -x {5.2 4.1 -1 ------- null}
r -t 0.0304510384873346 -s 2 -d 1 -p rtProtoDV -e 6 -c 0 -i 14 -a 0 -x {2.2 1.1 -1 ------- null}
r -t 0.0304510384873346 -s 2 -d 3 -p rtProtoDV -e 6 -c 0 -i 15 -a 0 -x {2.2 3.2 -1 ------- null}
+ -t 0.0304510384873346 -s 3 -d 2 -p rtProtoDV -e 6 -c 0 -i 28 -a 0 -x {3.2 2.2 -1 ------- null}
- -t 0.0304510384873346 -s 3 -d 2 -p rtProtoDV -e 6 -c 0 -i 28 -a 0 -x {3.2 2.2 -1 ------- null}
h -t 0.0304510384873346 -s 3 -d 2 -p rtProtoDV -e 6 -c 0 -i 28 -a 0 -x {3.2 2.2 -1 ------- null}
+ -t 0.0304510384873346 -s 3 -d 4 -p rtProtoDV -e 6 -c 0 -i 29 -a 0 -x {3.2 4.1 -1 ------- null}
- -t 0.0304510384873346 -s 3 -d 4 -p rtProtoDV -e 6 -c 0 -i 29 -a 0 -x {3.2 4.1 -1 ------- null}
h -t 0.0304510384873346 -s 3 -d 4 -p rtProtoDV -e 6 -c 0 -i 29 -a 0 -x {3.2 4.1 -1 ------- null}
r -t 0.0304510384873346 -s 4 -d 3 -p rtProtoDV -e 6 -c 0 -i 18 -a 0 -x {4.1 3.2 -1 ------- null}
+ -t 0.0304510384873346 -s 3 -d 2 -p rtProtoDV -e 6 -c 0 -i 30 -a 0 -x {3.2 2.2 -1 ------- null}
+ -t 0.0304510384873346 -s 3 -d 4 -p rtProtoDV -e 6 -c 0 -i 31 -a 0 -x {3.2 4.1 -1 ------- null}
r -t 0.0304510384873346 -s 4 -d 5 -p rtProtoDV -e 6 -c 0 -i 19 -a 0 -x {4.1 5.2 -1 ------- null}
+ -t 0.0304510384873346 -s 5 -d 0 -p rtProtoDV -e 6 -c 0 -i 32 -a 0 -x {5.2 0.2 -1 ------- null}
+ -t 0.0304510384873346 -s 5 -d 4 -p rtProtoDV -e 6 -c 0 -i 33 -a 0 -x {5.2 4.1 -1 ------- null}
- -t 0.0305447884873346 -s 5 -d 0 -p rtProtoDV -e 6 -c 0 -i 32 -a 0 -x {5.2 0.2 -1 ------- null}
h -t 0.0305447884873346 -s 5 -d 0 -p rtProtoDV -e 6 -c 0 -i 32 -a 0 -x {5.2 0.2 -1 ------- null}
- -t 0.0305447884873346 -s 5 -d 4 -p rtProtoDV -e 6 -c 0 -i 33 -a 0 -x {5.2 4.1 -1 ------- null}
h -t 0.0305447884873346 -s 5 -d 4 -p rtProtoDV -e 6 -c 0 -i 33 -a 0 -x {5.2 4.1 -1 ------- null}
- -t 0.0305447884873346 -s 3 -d 2 -p rtProtoDV -e 6 -c 0 -i 30 -a 0 -x {3.2 2.2 -1 ------- null}
h -t 0.0305447884873346 -s 3 -d 2 -p rtProtoDV -e 6 -c 0 -i 30 -a 0 -x {3.2 2.2 -1 ------- null}
- -t 0.0305447884873346 -s 3 -d 4 -p rtProtoDV -e 6 -c 0 -i 31 -a 0 -x {3.2 4.1 -1 ------- null}
h -t 0.0305447884873346 -s 3 -d 4 -p rtProtoDV -e 6 -c 0 -i 31 -a 0 -x {3.2 4.1 -1 ------- null}
r -t 0.0305447884873346 -s 0 -d 1 -p rtProtoDV -e 6 -c 0 -i 16 -a 0 -x {0.2 1.1 -1 ------- null}
+ -t 0.0305447884873346 -s 1 -d 0 -p rtProtoDV -e 6 -c 0 -i 34 -a 0 -x {1.1 0.2 -1 ------- null}
- -t 0.0305447884873346 -s 1 -d 0 -p rtProtoDV -e 6 -c 0 -i 34 -a 0 -x {1.1 0.2 -1 ------- null}
h -t 0.0305447884873346 -s 1 -d 0 -p rtProtoDV -e 6 -c 0 -i 34 -a 0 -x {1.1 0.2 -1 ------- null}
+ -t 0.0305447884873346 -s 1 -d 2 -p rtProtoDV -e 6 -c 0 -i 35 -a 0 -x {1.1 2.2 -1 ------- null}
- -t 0.0305447884873346 -s 1 -d 2 -p rtProtoDV -e 6 -c 0 -i 35 -a 0 -x {1.1 2.2 -1 ------- null}
h -t 0.0305447884873346 -s 1 -d 2 -p rtProtoDV -e 6 -c 0 -i 35 -a 0 -x {1.1 2.2 -1 ------- null}
r -t 0.0305447884873346 -s 0 -d 5 -p rtProtoDV -e 6 -c 0 -i 17 -a 0 -x {0.2 5.2 -1 ------- null}
r -t 0.0373835802185826 -s 0 -d 1 -p rtProtoDV -e 6 -c 0 -i 20 -a 0 -x {0.2 1.1 -1 ------- null}
r -t 0.0373835802185826 -s 0 -d 5 -p rtProtoDV -e 6 -c 0 -i 21 -a 0 -x {0.2 5.2 -1 ------- null}
r -t 0.0373835802185826 -s 2 -d 1 -p rtProtoDV -e 6 -c 0 -i 22 -a 0 -x {2.2 1.1 -1 ------- null}
r -t 0.0373835802185826 -s 2 -d 3 -p rtProtoDV -e 6 -c 0 -i 23 -a 0 -x {2.2 3.2 -1 ------- null}
r -t 0.0373835802185826 -s 4 -d 3 -p rtProtoDV -e 6 -c 0 -i 24 -a 0 -x {4.1 3.2 -1 ------- null}
r -t 0.0373835802185826 -s 4 -d 5 -p rtProtoDV -e 6 -c 0 -i 25 -a 0 -x {4.1 5.2 -1 ------- null}
r -t 0.0405447884873346 -s 5 -d 0 -p rtProtoDV -e 6 -c 0 -i 26 -a 0 -x {5.2 0.2 -1 ------- null}
r -t 0.0405447884873346 -s 5 -d 4 -p rtProtoDV -e 6 -c 0 -i 27 -a 0 -x {5.2 4.1 -1 ------- null}
r -t 0.0405447884873346 -s 3 -d 2 -p rtProtoDV -e 6 -c 0 -i 28 -a 0 -x {3.2 2.2 -1 ------- null}
r -t 0.0405447884873346 -s 3 -d 4 -p rtProtoDV -e 6 -c 0 -i 29 -a 0 -x {3.2 4.1 -1 ------- null}
r -t 0.0406385384873346 -s 5 -d 0 -p rtProtoDV -e 6 -c 0 -i 32 -a 0 -x {5.2 0.2 -1 ------- null}
r -t 0.0406385384873346 -s 5 -d 4 -p rtProtoDV -e 6 -c 0 -i 33 -a 0 -x {5.2 4.1 -1 ------- null}
r -t 0.0406385384873346 -s 3 -d 2 -p rtProtoDV -e 6 -c 0 -i 30 -a 0 -x {3.2 2.2 -1 ------- null}
r -t 0.0406385384873346 -s 3 -d 4 -p rtProtoDV -e 6 -c 0 -i 31 -a 0 -x {3.2 4.1 -1 ------- null}
r -t 0.0406385384873346 -s 1 -d 0 -p rtProtoDV -e 6 -c 0 -i 34 -a 0 -x {1.1 0.2 -1 ------- null}
r -t 0.0406385384873346 -s 1 -d 2 -p rtProtoDV -e 6 -c 0 -i 35 -a 0 -x {1.1 2.2 -1 ------- null}
+ -t 0.04406133552271 -s 3 -d 2 -p rtProtoDV -e 6 -c 0 -i 36 -a 0 -x {3.2 2.2 -1 ------- null}
- -t 0.04406133552271 -s 3 -d 2 -p rtProtoDV -e 6 -c 0 -i 36 -a 0 -x {3.2 2.2 -1 ------- null}
h -t 0.04406133552271 -s 3 -d 2 -p rtProtoDV -e 6 -c 0 -i 36 -a 0 -x {3.2 2.2 -1 ------- null}
+ -t 0.04406133552271 -s 3 -d 4 -p rtProtoDV -e 6 -c 0 -i 37 -a 0 -x {3.2 4.1 -1 ------- null}
- -t 0.04406133552271 -s 3 -d 4 -p rtProtoDV -e 6 -c 0 -i 37 -a 0 -x {3.2 4.1 -1 ------- null}
h -t 0.04406133552271 -s 3 -d 4 -p rtProtoDV -e 6 -c 0 -i 37 -a 0 -x {3.2 4.1 -1 ------- null}
r -t 0.05415508552271 -s 3 -d 2 -p rtProtoDV -e 6 -c 0 -i 36 -a 0 -x {3.2 2.2 -1 ------- null}
r -t 0.05415508552271 -s 3 -d 4 -p rtProtoDV -e 6 -c 0 -i 37 -a 0 -x {3.2 4.1 -1 ------- null}
+ -t 0.1 -s 0 -d 1 -p tcp -e 40 -c 0 -i 38 -a 0 -x {0.0 2.0 0 ------- null}
- -t 0.1 -s 0 -d 1 -p tcp -e 40 -c 0 -i 38 -a 0 -x {0.0 2.0 0 ------- null}
h -t 0.1 -s 0 -d 1 -p tcp -e 40 -c 0 -i 38 -a 0 -x {0.0 2.0 -1 ------- null}
+ -t 0.1 -s 3 -d 4 -p tcp -e 40 -c 1 -i 39 -a 1 -x {3.0 5.0 0 ------- null}
- -t 0.1 -s 3 -d 4 -p tcp -e 40 -c 1 -i 39 -a 1 -x {3.0 5.0 0 ------- null}
h -t 0.1 -s 3 -d 4 -p tcp -e 40 -c 1 -i 39 -a 1 -x {3.0 5.0 -1 ------- null}
r -t 0.110625 -s 0 -d 1 -p tcp -e 40 -c 0 -i 38 -a 0 -x {0.0 2.0 0 ------- null}
+ -t 0.110625 -s 1 -d 2 -p tcp -e 40 -c 0 -i 38 -a 0 -x {0.0 2.0 0 ------- null}
- -t 0.110625 -s 1 -d 2 -p tcp -e 40 -c 0 -i 38 -a 0 -x {0.0 2.0 0 ------- null}
h -t 0.110625 -s 1 -d 2 -p tcp -e 40 -c 0 -i 38 -a 0 -x {0.0 2.0 -1 ------- null}
r -t 0.110625 -s 3 -d 4 -p tcp -e 40 -c 1 -i 39 -a 1 -x {3.0 5.0 0 ------- null}
+ -t 0.110625 -s 4 -d 5 -p tcp -e 40 -c 1 -i 39 -a 1 -x {3.0 5.0 0 ------- null}
- -t 0.110625 -s 4 -d 5 -p tcp -e 40 -c 1 -i 39 -a 1 -x {3.0 5.0 0 ------- null}
h -t 0.110625 -s 4 -d 5 -p tcp -e 40 -c 1 -i 39 -a 1 -x {3.0 5.0 -1 ------- null}
r -t 0.12125 -s 1 -d 2 -p tcp -e 40 -c 0 -i 38 -a 0 -x {0.0 2.0 0 ------- null}
+ -t 0.12125 -s 2 -d 1 -p ack -e 40 -c 0 -i 40 -a 0 -x {2.0 0.0 0 ------- null}
- -t 0.12125 -s 2 -d 1 -p ack -e 40 -c 0 -i 40 -a 0 -x {2.0 0.0 0 ------- null}
h -t 0.12125 -s 2 -d 1 -p ack -e 40 -c 0 -i 40 -a 0 -x {2.0 0.0 -1 ------- null}
r -t 0.12125 -s 4 -d 5 -p tcp -e 40 -c 1 -i 39 -a 1 -x {3.0 5.0 0 ------- null}
+ -t 0.12125 -s 5 -d 4 -p ack -e 40 -c 1 -i 41 -a 1 -x {5.0 3.0 0 ------- null}
- -t 0.12125 -s 5 -d 4 -p ack -e 40 -c 1 -i 41 -a 1 -x {5.0 3.0 0 ------- null}
h -t 0.12125 -s 5 -d 4 -p ack -e 40 -c 1 -i 41 -a 1 -x {5.0 3.0 -1 ------- null}
r -t 0.131875 -s 2 -d 1 -p ack -e 40 -c 0 -i 40 -a 0 -x {2.0 0.0 0 ------- null}
+ -t 0.131875 -s 1 -d 0 -p ack -e 40 -c 0 -i 40 -a 0 -x {2.0 0.0 0 ------- null}
- -t 0.131875 -s 1 -d 0 -p ack -e 40 -c 0 -i 40 -a 0 -x {2.0 0.0 0 ------- null}
h -t 0.131875 -s 1 -d 0 -p ack -e 40 -c 0 -i 40 -a 0 -x {2.0 0.0 -1 ------- null}
r -t 0.131875 -s 5 -d 4 -p ack -e 40 -c 1 -i 41 -a 1 -x {5.0 3.0 0 ------- null}
+ -t 0.131875 -s 4 -d 3 -p ack -e 40 -c 1 -i 41 -a 1 -x {5.0 3.0 0 ------- null}
- -t 0.131875 -s 4 -d 3 -p ack -e 40 -c 1 -i 41 -a 1 -x {5.0 3.0 0 ------- null}
h -t 0.131875 -s 4 -d 3 -p ack -e 40 -c 1 -i 41 -a 1 -x {5.0 3.0 -1 ------- null}
r -t 0.1425 -s 1 -d 0 -p ack -e 40 -c 0 -i 40 -a 0 -x {2.0 0.0 0 ------- null}
+ -t 0.1425 -s 0 -d 1 -p tcp -e 1040 -c 0 -i 42 -a 0 -x {0.0 2.0 1 ------- null}
- -t 0.1425 -s 0 -d 1 -p tcp -e 1040 -c 0 -i 42 -a 0 -x {0.0 2.0 1 ------- null}
h -t 0.1425 -s 0 -d 1 -p tcp -e 1040 -c 0 -i 42 -a 0 -x {0.0 2.0 -1 ------- null}
+ -t 0.1425 -s 0 -d 1 -p tcp -e 1040 -c 0 -i 43 -a 0 -x {0.0 2.0 2 ------- null}
r -t 0.1425 -s 4 -d 3 -p ack -e 40 -c 1 -i 41 -a 1 -x {5.0 3.0 0 ------- null}
+ -t 0.1425 -s 3 -d 4 -p tcp -e 1040 -c 1 -i 44 -a 1 -x {3.0 5.0 1 ------- null}
- -t 0.1425 -s 3 -d 4 -p tcp -e 1040 -c 1 -i 44 -a 1 -x {3.0 5.0 1 ------- null}
h -t 0.1425 -s 3 -d 4 -p tcp -e 1040 -c 1 -i 44 -a 1 -x {3.0 5.0 -1 ------- null}
+ -t 0.1425 -s 3 -d 4 -p tcp -e 1040 -c 1 -i 45 -a 1 -x {3.0 5.0 2 ------- null}
- -t 0.15875 -s 0 -d 1 -p tcp -e 1040 -c 0 -i 43 -a 0 -x {0.0 2.0 2 ------- null}
h -t 0.15875 -s 0 -d 1 -p tcp -e 1040 -c 0 -i 43 -a 0 -x {0.0 2.0 -1 ------- null}
- -t 0.15875 -s 3 -d 4 -p tcp -e 1040 -c 1 -i 45 -a 1 -x {3.0 5.0 2 ------- null}
h -t 0.15875 -s 3 -d 4 -p tcp -e 1040 -c 1 -i 45 -a 1 -x {3.0 5.0 -1 ------- null}
r -t 0.16875 -s 0 -d 1 -p tcp -e 1040 -c 0 -i 42 -a 0 -x {0.0 2.0 1 ------- null}
+ -t 0.16875 -s 1 -d 2 -p tcp -e 1040 -c 0 -i 42 -a 0 -x {0.0 2.0 1 ------- null}
- -t 0.16875 -s 1 -d 2 -p tcp -e 1040 -c 0 -i 42 -a 0 -x {0.0 2.0 1 ------- null}
h -t 0.16875 -s 1 -d 2 -p tcp -e 1040 -c 0 -i 42 -a 0 -x {0.0 2.0 -1 ------- null}
r -t 0.16875 -s 3 -d 4 -p tcp -e 1040 -c 1 -i 44 -a 1 -x {3.0 5.0 1 ------- null}
+ -t 0.16875 -s 4 -d 5 -p tcp -e 1040 -c 1 -i 44 -a 1 -x {3.0 5.0 1 ------- null}
- -t 0.16875 -s 4 -d 5 -p tcp -e 1040 -c 1 -i 44 -a 1 -x {3.0 5.0 1 ------- null}
h -t 0.16875 -s 4 -d 5 -p tcp -e 1040 -c 1 -i 44 -a 1 -x {3.0 5.0 -1 ------- null}
r -t 0.185 -s 0 -d 1 -p tcp -e 1040 -c 0 -i 43 -a 0 -x {0.0 2.0 2 ------- null}
+ -t 0.185 -s 1 -d 2 -p tcp -e 1040 -c 0 -i 43 -a 0 -x {0.0 2.0 2 ------- null}
r -t 0.185 -s 3 -d 4 -p tcp -e 1040 -c 1 -i 45 -a 1 -x {3.0 5.0 2 ------- null}
+ -t 0.185 -s 4 -d 5 -p tcp -e 1040 -c 1 -i 45 -a 1 -x {3.0 5.0 2 ------- null}
- -t 0.185 -s 1 -d 2 -p tcp -e 1040 -c 0 -i 43 -a 0 -x {0.0 2.0 2 ------- null}
h -t 0.185 -s 1 -d 2 -p tcp -e 1040 -c 0 -i 43 -a 0 -x {0.0 2.0 -1 ------- null}
- -t 0.185 -s 4 -d 5 -p tcp -e 1040 -c 1 -i 45 -a 1 -x {3.0 5.0 2 ------- null}
h -t 0.185 -s 4 -d 5 -p tcp -e 1040 -c 1 -i 45 -a 1 -x {3.0 5.0 -1 ------- null}
r -t 0.195 -s 1 -d 2 -p tcp -e 1040 -c 0 -i 42 -a 0 -x {0.0 2.0 1 ------- null}
+ -t 0.195 -s 2 -d 1 -p ack -e 40 -c 0 -i 46 -a 0 -x {2.0 0.0 1 ------- null}
- -t 0.195 -s 2 -d 1 -p ack -e 40 -c 0 -i 46 -a 0 -x {2.0 0.0 1 ------- null}
h -t 0.195 -s 2 -d 1 -p ack -e 40 -c 0 -i 46 -a 0 -x {2.0 0.0 -1 ------- null}
r -t 0.195 -s 4 -d 5 -p tcp -e 1040 -c 1 -i 44 -a 1 -x {3.0 5.0 1 ------- null}
+ -t 0.195 -s 5 -d 4 -p ack -e 40 -c 1 -i 47 -a 1 -x {5.0 3.0 1 ------- null}
- -t 0.195 -s 5 -d 4 -p ack -e 40 -c 1 -i 47 -a 1 -x {5.0 3.0 1 ------- null}
h -t 0.195 -s 5 -d 4 -p ack -e 40 -c 1 -i 47 -a 1 -x {5.0 3.0 -1 ------- null}
r -t 0.205625 -s 2 -d 1 -p ack -e 40 -c 0 -i 46 -a 0 -x {2.0 0.0 1 ------- null}
+ -t 0.205625 -s 1 -d 0 -p ack -e 40 -c 0 -i 46 -a 0 -x {2.0 0.0 1 ------- null}
- -t 0.205625 -s 1 -d 0 -p ack -e 40 -c 0 -i 46 -a 0 -x {2.0 0.0 1 ------- null}
h -t 0.205625 -s 1 -d 0 -p ack -e 40 -c 0 -i 46 -a 0 -x {2.0 0.0 -1 ------- null}
r -t 0.205625 -s 5 -d 4 -p ack -e 40 -c 1 -i 47 -a 1 -x {5.0 3.0 1 ------- null}
+ -t 0.205625 -s 4 -d 3 -p ack -e 40 -c 1 -i 47 -a 1 -x {5.0 3.0 1 ------- null}
- -t 0.205625 -s 4 -d 3 -p ack -e 40 -c 1 -i 47 -a 1 -x {5.0 3.0 1 ------- null}
h -t 0.205625 -s 4 -d 3 -p ack -e 40 -c 1 -i 47 -a 1 -x {5.0 3.0 -1 ------- null}
r -t 0.21125 -s 1 -d 2 -p tcp -e 1040 -c 0 -i 43 -a 0 -x {0.0 2.0 2 ------- null}
+ -t 0.21125 -s 2 -d 1 -p ack -e 40 -c 0 -i 48 -a 0 -x {2.0 0.0 2 ------- null}
- -t 0.21125 -s 2 -d 1 -p ack -e 40 -c 0 -i 48 -a 0 -x {2.0 0.0 2 ------- null}
h -t 0.21125 -s 2 -d 1 -p ack -e 40 -c 0 -i 48 -a 0 -x {2.0 0.0 -1 ------- null}
r -t 0.21125 -s 4 -d 5 -p tcp -e 1040 -c 1 -i 45 -a 1 -x {3.0 5.0 2 ------- null}
+ -t 0.21125 -s 5 -d 4 -p ack -e 40 -c 1 -i 49 -a 1 -x {5.0 3.0 2 ------- null}
- -t 0.21125 -s 5 -d 4 -p ack -e 40 -c 1 -i 49 -a 1 -x {5.0 3.0 2 ------- null}
h -t 0.21125 -s 5 -d 4 -p ack -e 40 -c 1 -i 49 -a 1 -x {5.0 3.0 -1 ------- null}
r -t 0.21625 -s 1 -d 0 -p ack -e 40 -c 0 -i 46 -a 0 -x {2.0 0.0 1 ------- null}
+ -t 0.21625 -s 0 -d 1 -p tcp -e 1040 -c 0 -i 50 -a 0 -x {0.0 2.0 3 ------- null}
- -t 0.21625 -s 0 -d 1 -p tcp -e 1040 -c 0 -i 50 -a 0 -x {0.0 2.0 3 ------- null}
h -t 0.21625 -s 0 -d 1 -p tcp -e 1040 -c 0 -i 50 -a 0 -x {0.0 2.0 -1 ------- null}
+ -t 0.21625 -s 0 -d 1 -p tcp -e 1040 -c 0 -i 51 -a 0 -x {0.0 2.0 4 ------- null}
r -t 0.21625 -s 4 -d 3 -p ack -e 40 -c 1 -i 47 -a 1 -x {5.0 3.0 1 ------- null}
+ -t 0.21625 -s 3 -d 4 -p tcp -e 1040 -c 1 -i 52 -a 1 -x {3.0 5.0 3 ------- null}
- -t 0.21625 -s 3 -d 4 -p tcp -e 1040 -c 1 -i 52 -a 1 -x {3.0 5.0 3 ------- null}
h -t 0.21625 -s 3 -d 4 -p tcp -e 1040 -c 1 -i 52 -a 1 -x {3.0 5.0 -1 ------- null}
+ -t 0.21625 -s 3 -d 4 -p tcp -e 1040 -c 1 -i 53 -a 1 -x {3.0 5.0 4 ------- null}
+ -t 0.22058669092161 -s 4 -d 3 -p rtProtoDV -e 6 -c 0 -i 54 -a 0 -x {4.1 3.2 -1 ------- null}
- -t 0.22058669092161 -s 4 -d 3 -p rtProtoDV -e 6 -c 0 -i 54 -a 0 -x {4.1 3.2 -1 ------- null}
h -t 0.22058669092161 -s 4 -d 3 -p rtProtoDV -e 6 -c 0 -i 54 -a 0 -x {4.1 3.2 -1 ------- null}
+ -t 0.22058669092161 -s 4 -d 5 -p rtProtoDV -e 6 -c 0 -i 55 -a 0 -x {4.1 5.2 -1 ------- null}
- -t 0.22058669092161 -s 4 -d 5 -p rtProtoDV -e 6 -c 0 -i 55 -a 0 -x {4.1 5.2 -1 ------- null}
h -t 0.22058669092161 -s 4 -d 5 -p rtProtoDV -e 6 -c 0 -i 55 -a 0 -x {4.1 5.2 -1 ------- null}
r -t 0.221875 -s 2 -d 1 -p ack -e 40 -c 0 -i 48 -a 0 -x {2.0 0.0 2 ------- null}
+ -t 0.221875 -s 1 -d 0 -p ack -e 40 -c 0 -i 48 -a 0 -x {2.0 0.0 2 ------- null}
- -t 0.221875 -s 1 -d 0 -p ack -e 40 -c 0 -i 48 -a 0 -x {2.0 0.0 2 ------- null}
h -t 0.221875 -s 1 -d 0 -p ack -e 40 -c 0 -i 48 -a 0 -x {2.0 0.0 -1 ------- null}
r -t 0.221875 -s 5 -d 4 -p ack -e 40 -c 1 -i 49 -a 1 -x {5.0 3.0 2 ------- null}
+ -t 0.221875 -s 4 -d 3 -p ack -e 40 -c 1 -i 49 -a 1 -x {5.0 3.0 2 ------- null}
- -t 0.221875 -s 4 -d 3 -p ack -e 40 -c 1 -i 49 -a 1 -x {5.0 3.0 2 ------- null}
h -t 0.221875 -s 4 -d 3 -p ack -e 40 -c 1 -i 49 -a 1 -x {5.0 3.0 -1 ------- null}
r -t 0.23068044092161 -s 4 -d 3 -p rtProtoDV -e 6 -c 0 -i 54 -a 0 -x {4.1 3.2 -1 ------- null}
r -t 0.23068044092161 -s 4 -d 5 -p rtProtoDV -e 6 -c 0 -i 55 -a 0 -x {4.1 5.2 -1 ------- null}
- -t 0.2325 -s 0 -d 1 -p tcp -e 1040 -c 0 -i 51 -a 0 -x {0.0 2.0 4 ------- null}
h -t 0.2325 -s 0 -d 1 -p tcp -e 1040 -c 0 -i 51 -a 0 -x {0.0 2.0 -1 ------- null}
- -t 0.2325 -s 3 -d 4 -p tcp -e 1040 -c 1 -i 53 -a 1 -x {3.0 5.0 4 ------- null}
h -t 0.2325 -s 3 -d 4 -p tcp -e 1040 -c 1 -i 53 -a 1 -x {3.0 5.0 -1 ------- null}
r -t 0.2325 -s 1 -d 0 -p ack -e 40 -c 0 -i 48 -a 0 -x {2.0 0.0 2 ------- null}
+ -t 0.2325 -s 0 -d 1 -p tcp -e 1040 -c 0 -i 56 -a 0 -x {0.0 2.0 5 ------- null}
+ -t 0.2325 -s 0 -d 1 -p tcp -e 1040 -c 0 -i 57 -a 0 -x {0.0 2.0 6 ------- null}
r -t 0.2325 -s 4 -d 3 -p ack -e 40 -c 1 -i 49 -a 1 -x {5.0 3.0 2 ------- null}
+ -t 0.2325 -s 3 -d 4 -p tcp -e 1040 -c 1 -i 58 -a 1 -x {3.0 5.0 5 ------- null}
+ -t 0.2325 -s 3 -d 4 -p tcp -e 1040 -c 1 -i 59 -a 1 -x {3.0 5.0 6 ------- null}
r -t 0.2425 -s 0 -d 1 -p tcp -e 1040 -c 0 -i 50 -a 0 -x {0.0 2.0 3 ------- null}
+ -t 0.2425 -s 1 -d 2 -p tcp -e 1040 -c 0 -i 50 -a 0 -x {0.0 2.0 3 ------- null}
- -t 0.2425 -s 1 -d 2 -p tcp -e 1040 -c 0 -i 50 -a 0 -x {0.0 2.0 3 ------- null}
h -t 0.2425 -s 1 -d 2 -p tcp -e 1040 -c 0 -i 50 -a 0 -x {0.0 2.0 -1 ------- null}
r -t 0.2425 -s 3 -d 4 -p tcp -e 1040 -c 1 -i 52 -a 1 -x {3.0 5.0 3 ------- null}
+ -t 0.2425 -s 4 -d 5 -p tcp -e 1040 -c 1 -i 52 -a 1 -x {3.0 5.0 3 ------- null}
- -t 0.2425 -s 4 -d 5 -p tcp -e 1040 -c 1 -i 52 -a 1 -x {3.0 5.0 3 ------- null}
h -t 0.2425 -s 4 -d 5 -p tcp -e 1040 -c 1 -i 52 -a 1 -x {3.0 5.0 -1 ------- null}
- -t 0.24875 -s 0 -d 1 -p tcp -e 1040 -c 0 -i 56 -a 0 -x {0.0 2.0 5 ------- null}
h -t 0.24875 -s 0 -d 1 -p tcp -e 1040 -c 0 -i 56 -a 0 -x {0.0 2.0 -1 ------- null}
- -t 0.24875 -s 3 -d 4 -p tcp -e 1040 -c 1 -i 58 -a 1 -x {3.0 5.0 5 ------- null}
h -t 0.24875 -s 3 -d 4 -p tcp -e 1040 -c 1 -i 58 -a 1 -x {3.0 5.0 -1 ------- null}
r -t 0.25875 -s 0 -d 1 -p tcp -e 1040 -c 0 -i 51 -a 0 -x {0.0 2.0 4 ------- null}
+ -t 0.25875 -s 1 -d 2 -p tcp -e 1040 -c 0 -i 51 -a 0 -x {0.0 2.0 4 ------- null}
r -t 0.25875 -s 3 -d 4 -p tcp -e 1040 -c 1 -i 53 -a 1 -x {3.0 5.0 4 ------- null}
+ -t 0.25875 -s 4 -d 5 -p tcp -e 1040 -c 1 -i 53 -a 1 -x {3.0 5.0 4 ------- null}
- -t 0.25875 -s 1 -d 2 -p tcp -e 1040 -c 0 -i 51 -a 0 -x {0.0 2.0 4 ------- null}
h -t 0.25875 -s 1 -d 2 -p tcp -e 1040 -c 0 -i 51 -a 0 -x {0.0 2.0 -1 ------- null}
- -t 0.25875 -s 4 -d 5 -p tcp -e 1040 -c 1 -i 53 -a 1 -x {3.0 5.0 4 ------- null}
h -t 0.25875 -s 4 -d 5 -p tcp -e 1040 -c 1 -i 53 -a 1 -x {3.0 5.0 -1 ------- null}
- -t 0.265 -s 0 -d 1 -p tcp -e 1040 -c 0 -i 57 -a 0 -x {0.0 2.0 6 ------- null}
h -t 0.265 -s 0 -d 1 -p tcp -e 1040 -c 0 -i 57 -a 0 -x {0.0 2.0 -1 ------- null}
- -t 0.265 -s 3 -d 4 -p tcp -e 1040 -c 1 -i 59 -a 1 -x {3.0 5.0 6 ------- null}
h -t 0.265 -s 3 -d 4 -p tcp -e 1040 -c 1 -i 59 -a 1 -x {3.0 5.0 -1 ------- null}
r -t 0.26875 -s 1 -d 2 -p tcp -e 1040 -c 0 -i 50 -a 0 -x {0.0 2.0 3 ------- null}
+ -t 0.26875 -s 2 -d 1 -p ack -e 40 -c 0 -i 60 -a 0 -x {2.0 0.0 3 ------- null}
- -t 0.26875 -s 2 -d 1 -p ack -e 40 -c 0 -i 60 -a 0 -x {2.0 0.0 3 ------- null}
h -t 0.26875 -s 2 -d 1 -p ack -e 40 -c 0 -i 60 -a 0 -x {2.0 0.0 -1 ------- null}
r -t 0.26875 -s 4 -d 5 -p tcp -e 1040 -c 1 -i 52 -a 1 -x {3.0 5.0 3 ------- null}
+ -t 0.26875 -s 5 -d 4 -p ack -e 40 -c 1 -i 61 -a 1 -x {5.0 3.0 3 ------- null}
- -t 0.26875 -s 5 -d 4 -p ack -e 40 -c 1 -i 61 -a 1 -x {5.0 3.0 3 ------- null}
h -t 0.26875 -s 5 -d 4 -p ack -e 40 -c 1 -i 61 -a 1 -x {5.0 3.0 -1 ------- null}
r -t 0.275 -s 0 -d 1 -p tcp -e 1040 -c 0 -i 56 -a 0 -x {0.0 2.0 5 ------- null}
+ -t 0.275 -s 1 -d 2 -p tcp -e 1040 -c 0 -i 56 -a 0 -x {0.0 2.0 5 ------- null}
r -t 0.275 -s 3 -d 4 -p tcp -e 1040 -c 1 -i 58 -a 1 -x {3.0 5.0 5 ------- null}
+ -t 0.275 -s 4 -d 5 -p tcp -e 1040 -c 1 -i 58 -a 1 -x {3.0 5.0 5 ------- null}
- -t 0.275 -s 1 -d 2 -p tcp -e 1040 -c 0 -i 56 -a 0 -x {0.0 2.0 5 ------- null}
h -t 0.275 -s 1 -d 2 -p tcp -e 1040 -c 0 -i 56 -a 0 -x {0.0 2.0 -1 ------- null}
- -t 0.275 -s 4 -d 5 -p tcp -e 1040 -c 1 -i 58 -a 1 -x {3.0 5.0 5 ------- null}
h -t 0.275 -s 4 -d 5 -p tcp -e 1040 -c 1 -i 58 -a 1 -x {3.0 5.0 -1 ------- null}
+ -t 0.277940357931862 -s 1 -d 0 -p rtProtoDV -e 6 -c 0 -i 62 -a 0 -x {1.1 0.2 -1 ------- null}
- -t 0.277940357931862 -s 1 -d 0 -p rtProtoDV -e 6 -c 0 -i 62 -a 0 -x {1.1 0.2 -1 ------- null}
h -t 0.277940357931862 -s 1 -d 0 -p rtProtoDV -e 6 -c 0 -i 62 -a 0 -x {1.1 0.2 -1 ------- null}
+ -t 0.277940357931862 -s 1 -d 2 -p rtProtoDV -e 6 -c 0 -i 63 -a 0 -x {1.1 2.2 -1 ------- null}
r -t 0.279375 -s 2 -d 1 -p ack -e 40 -c 0 -i 60 -a 0 -x {2.0 0.0 3 ------- null}
+ -t 0.279375 -s 1 -d 0 -p ack -e 40 -c 0 -i 60 -a 0 -x {2.0 0.0 3 ------- null}
- -t 0.279375 -s 1 -d 0 -p ack -e 40 -c 0 -i 60 -a 0 -x {2.0 0.0 3 ------- null}
h -t 0.279375 -s 1 -d 0 -p ack -e 40 -c 0 -i 60 -a 0 -x {2.0 0.0 -1 ------- null}
r -t 0.279375 -s 5 -d 4 -p ack -e 40 -c 1 -i 61 -a 1 -x {5.0 3.0 3 ------- null}
+ -t 0.279375 -s 4 -d 3 -p ack -e 40 -c 1 -i 61 -a 1 -x {5.0 3.0 3 ------- null}
- -t 0.279375 -s 4 -d 3 -p ack -e 40 -c 1 -i 61 -a 1 -x {5.0 3.0 3 ------- null}
h -t 0.279375 -s 4 -d 3 -p ack -e 40 -c 1 -i 61 -a 1 -x {5.0 3.0 -1 ------- null}
r -t 0.285 -s 1 -d 2 -p tcp -e 1040 -c 0 -i 51 -a 0 -x {0.0 2.0 4 ------- null}
+ -t 0.285 -s 2 -d 1 -p ack -e 40 -c 0 -i 64 -a 0 -x {2.0 0.0 4 ------- null}
- -t 0.285 -s 2 -d 1 -p ack -e 40 -c 0 -i 64 -a 0 -x {2.0 0.0 4 ------- null}
h -t 0.285 -s 2 -d 1 -p ack -e 40 -c 0 -i 64 -a 0 -x {2.0 0.0 -1 ------- null}