V -t * -v 1.0a5 -a 0
A -t * -n 1 -p 0 -o 0x7fffffff -c 30 -a 1
A -t * -h 1 -m 1073741823 -s 0
c -t * -i 8 -n purple
c -t * -i 4 -n magenta
c -t * -i 0 -n yellow
c -t * -i 5 -n blue
c -t * -i 1 -n red
c -t * -i 6 -n black
c -t * -i 2 -n green
c -t * -i 7 -n brown
c -t * -i 3 -n orange
n -t * -a 4 -s 4 -S UP -v circle -c black -i black
n -t * -a 0 -s 0 -S UP -v circle -c black -i black
n -t * -a 1 -s 1 -S UP -v circle -c black -i black
n -t * -a 2 -s 2 -S UP -v circle -c black -i black
n -t * -a 3 -s 3 -S UP -v circle -c black -i black
X -t * -n 5 -r 0.2Mb -D 50ms -o left
L -t * -s 5 -d 0 -o up
L -t * -s 5 -d 1 -o down
L -t * -s 5 -d 2 -o up
L -t * -s 5 -d 3 -o down
L -t * -s 5 -d 4 -o up
h -t 0.1 -s 1 -d 5 -p tcp -e 40 -c 0 -i 0 -a 0 -x {1.0 2.0 0 ------- null}
+ -t 0.15 -s 1 -d 5 -p tcp -e 40 -c 0 -i 0 -a 0 -x {1.0 2.0 0 ------- null}
- -t 0.15 -s 1 -d 5 -p tcp -e 40 -c 0 -i 0 -a 0 -x {1.0 2.0 0 ------- null}
h -t 0.15 -s 1 -d 5 -p tcp -e 40 -c 0 -i 0 -a 0 -x {1.0 2.0 -1 ------- null}
d -t 0.150004 -s 4 -d 5 -p tcp -e 40 -c 0 -i 0 -a 0 -x {1.0 2.0 0 ------- null}
d -t 0.150004 -s 3 -d 5 -p tcp -e 40 -c 0 -i 0 -a 0 -x {1.0 2.0 0 ------- null}
d -t 0.150004 -s 0 -d 5 -p tcp -e 40 -c 0 -i 0 -a 0 -x {1.0 2.0 0 ------- null}
r -t 0.200004 -s 5 -d 2 -p tcp -e 40 -c 0 -i 0 -a 0 -x {1.0 2.0 0 ------- null}
h -t 0.200004 -s 2 -d 5 -p ack -e 40 -c 0 -i 1 -a 0 -x {2.0 1.0 0 ------- null}
+ -t 0.250004 -s 2 -d 5 -p ack -e 40 -c 0 -i 1 -a 0 -x {2.0 1.0 0 ------- null}
- -t 0.250004 -s 2 -d 5 -p ack -e 40 -c 0 -i 1 -a 0 -x {2.0 1.0 0 ------- null}
h -t 0.250004 -s 2 -d 5 -p ack -e 40 -c 0 -i 1 -a 0 -x {2.0 1.0 -1 ------- null}
d -t 0.250008 -s 4 -d 5 -p ack -e 40 -c 0 -i 1 -a 0 -x {2.0 1.0 0 ------- null}
d -t 0.250008 -s 3 -d 5 -p ack -e 40 -c 0 -i 1 -a 0 -x {2.0 1.0 0 ------- null}
d -t 0.250008 -s 0 -d 5 -p ack -e 40 -c 0 -i 1 -a 0 -x {2.0 1.0 0 ------- null}
r -t 0.300008 -s 5 -d 1 -p ack -e 40 -c 0 -i 1 -a 0 -x {2.0 1.0 0 ------- null}
h -t 0.300008 -s 1 -d 5 -p tcp -e 1040 -c 0 -i 2 -a 0 -x {1.0 2.0 1 ------- null}
h -t 0.300008 -s 1 -d 5 -p tcp -e 1040 -c 0 -i 3 -a 0 -x {1.0 2.0 2 ------- null}
+ -t 0.350008 -s 1 -d 5 -p tcp -e 1040 -c 0 -i 2 -a 0 -x {1.0 2.0 1 ------- null}
- -t 0.350008 -s 1 -d 5 -p tcp -e 1040 -c 0 -i 2 -a 0 -x {1.0 2.0 1 ------- null}
h -t 0.350008 -s 1 -d 5 -p tcp -e 1040 -c 0 -i 2 -a 0 -x {1.0 2.0 -1 ------- null}
+ -t 0.350008 -s 1 -d 5 -p tcp -e 1040 -c 0 -i 3 -a 0 -x {1.0 2.0 2 ------- null}
d -t 0.350012 -s 4 -d 5 -p tcp -e 1040 -c 0 -i 2 -a 0 -x {1.0 2.0 1 ------- null}
d -t 0.350012 -s 3 -d 5 -p tcp -e 1040 -c 0 -i 2 -a 0 -x {1.0 2.0 1 ------- null}
d -t 0.350012 -s 0 -d 5 -p tcp -e 1040 -c 0 -i 2 -a 0 -x {1.0 2.0 1 ------- null}
- -t 0.354424 -s 1 -d 5 -p tcp -e 1040 -c 0 -i 3 -a 0 -x {1.0 2.0 2 ------- null}
h -t 0.354424 -s 1 -d 5 -p tcp -e 1040 -c 0 -i 3 -a 0 -x {1.0 2.0 -1 ------- null}
d -t 0.354428 -s 4 -d 5 -p tcp -e 1040 -c 0 -i 3 -a 0 -x {1.0 2.0 2 ------- null}
d -t 0.354428 -s 3 -d 5 -p tcp -e 1040 -c 0 -i 3 -a 0 -x {1.0 2.0 2 ------- null}
d -t 0.354428 -s 0 -d 5 -p tcp -e 1040 -c 0 -i 3 -a 0 -x {1.0 2.0 2 ------- null}
r -t 0.400012 -s 5 -d 2 -p tcp -e 1040 -c 0 -i 2 -a 0 -x {1.0 2.0 1 ------- null}
h -t 0.400012 -s 2 -d 5 -p ack -e 40 -c 0 -i 4 -a 0 -x {2.0 1.0 1 ------- null}
r -t 0.404428 -s 5 -d 2 -p tcp -e 1040 -c 0 -i 3 -a 0 -x {1.0 2.0 2 ------- null}
h -t 0.404428 -s 2 -d 5 -p ack -e 40 -c 0 -i 5 -a 0 -x {2.0 1.0 2 ------- null}
+ -t 0.450012 -s 2 -d 5 -p ack -e 40 -c 0 -i 4 -a 0 -x {2.0 1.0 1 ------- null}
- -t 0.450012 -s 2 -d 5 -p ack -e 40 -c 0 -i 4 -a 0 -x {2.0 1.0 1 ------- null}
h -t 0.450012 -s 2 -d 5 -p ack -e 40 -c 0 -i 4 -a 0 -x {2.0 1.0 -1 ------- null}
d -t 0.450016 -s 4 -d 5 -p ack -e 40 -c 0 -i 4 -a 0 -x {2.0 1.0 1 ------- null}
d -t 0.450016 -s 3 -d 5 -p ack -e 40 -c 0 -i 4 -a 0 -x {2.0 1.0 1 ------- null}
d -t 0.450016 -s 0 -d 5 -p ack -e 40 -c 0 -i 4 -a 0 -x {2.0 1.0 1 ------- null}
+ -t 0.454428 -s 2 -d 5 -p ack -e 40 -c 0 -i 5 -a 0 -x {2.0 1.0 2 ------- null}
- -t 0.454428 -s 2 -d 5 -p ack -e 40 -c 0 -i 5 -a 0 -x {2.0 1.0 2 ------- null}
h -t 0.454428 -s 2 -d 5 -p ack -e 40 -c 0 -i 5 -a 0 -x {2.0 1.0 -1 ------- null}
d -t 0.454432 -s 4 -d 5 -p ack -e 40 -c 0 -i 5 -a 0 -x {2.0 1.0 2 ------- null}
d -t 0.454432 -s 3 -d 5 -p ack -e 40 -c 0 -i 5 -a 0 -x {2.0 1.0 2 ------- null}
d -t 0.454432 -s 0 -d 5 -p ack -e 40 -c 0 -i 5 -a 0 -x {2.0 1.0 2 ------- null}
r -t 0.500016 -s 5 -d 1 -p ack -e 40 -c 0 -i 4 -a 0 -x {2.0 1.0 1 ------- null}
h -t 0.500016 -s 1 -d 5 -p tcp -e 1040 -c 0 -i 6 -a 0 -x {1.0 2.0 3 ------- null}
h -t 0.500016 -s 1 -d 5 -p tcp -e 1040 -c 0 -i 7 -a 0 -x {1.0 2.0 4 ------- null}
r -t 0.504432 -s 5 -d 1 -p ack -e 40 -c 0 -i 5 -a 0 -x {2.0 1.0 2 ------- null}
h -t 0.504432 -s 1 -d 5 -p tcp -e 1040 -c 0 -i 8 -a 0 -x {1.0 2.0 5 ------- null}
h -t 0.504432 -s 1 -d 5 -p tcp -e 1040 -c 0 -i 9 -a 0 -x {1.0 2.0 6 ------- null}
+ -t 0.550016 -s 1 -d 5 -p tcp -e 1040 -c 0 -i 6 -a 0 -x {1.0 2.0 3 ------- null}
- -t 0.550016 -s 1 -d 5 -p tcp -e 1040 -c 0 -i 6 -a 0 -x {1.0 2.0 3 ------- null}
h -t 0.550016 -s 1 -d 5 -p tcp -e 1040 -c 0 -i 6 -a 0 -x {1.0 2.0 -1 ------- null}
+ -t 0.550016 -s 1 -d 5 -p tcp -e 1040 -c 0 -i 7 -a 0 -x {1.0 2.0 4 ------- null}
d -t 0.55002 -s 4 -d 5 -p tcp -e 1040 -c 0 -i 6 -a 0 -x {1.0 2.0 3 ------- null}
d -t 0.55002 -s 3 -d 5 -p tcp -e 1040 -c 0 -i 6 -a 0 -x {1.0 2.0 3 ------- null}
d -t 0.55002 -s 0 -d 5 -p tcp -e 1040 -c 0 -i 6 -a 0 -x {1.0 2.0 3 ------- null}
+ -t 0.554432 -s 1 -d 5 -p tcp -e 1040 -c 0 -i 8 -a 0 -x {1.0 2.0 5 ------- null}
+ -t 0.554432 -s 1 -d 5 -p tcp -e 1040 -c 0 -i 9 -a 0 -x {1.0 2.0 6 ------- null}
- -t 0.554432 -s 1 -d 5 -p tcp -e 1040 -c 0 -i 7 -a 0 -x {1.0 2.0 4 ------- null}
h -t 0.554432 -s 1 -d 5 -p tcp -e 1040 -c 0 -i 7 -a 0 -x {1.0 2.0 -1 ------- null}
d -t 0.554436 -s 4 -d 5 -p tcp -e 1040 -c 0 -i 7 -a 0 -x {1.0 2.0 4 ------- null}
d -t 0.554436 -s 3 -d 5 -p tcp -e 1040 -c 0 -i 7 -a 0 -x {1.0 2.0 4 ------- null}
d -t 0.554436 -s 0 -d 5 -p tcp -e 1040 -c 0 -i 7 -a 0 -x {1.0 2.0 4 ------- null}
- -t 0.558848 -s 1 -d 5 -p tcp -e 1040 -c 0 -i 8 -a 0 -x {1.0 2.0 5 ------- null}
h -t 0.558848 -s 1 -d 5 -p tcp -e 1040 -c 0 -i 8 -a 0 -x {1.0 2.0 -1 ------- null}
d -t 0.558852 -s 4 -d 5 -p tcp -e 1040 -c 0 -i 8 -a 0 -x {1.0 2.0 5 ------- null}
d -t 0.558852 -s 3 -d 5 -p tcp -e 1040 -c 0 -i 8 -a 0 -x {1.0 2.0 5 ------- null}
d -t 0.558852 -s 0 -d 5 -p tcp -e 1040 -c 0 -i 8 -a 0 -x {1.0 2.0 5 ------- null}
- -t 0.563264 -s 1 -d 5 -p tcp -e 1040 -c 0 -i 9 -a 0 -x {1.0 2.0 6 ------- null}
h -t 0.563264 -s 1 -d 5 -p tcp -e 1040 -c 0 -i 9 -a 0 -x {1.0 2.0 -1 ------- null}
d -t 0.563268 -s 4 -d 5 -p tcp -e 1040 -c 0 -i 9 -a 0 -x {1.0 2.0 6 ------- null}
d -t 0.563268 -s 3 -d 5 -p tcp -e 1040 -c 0 -i 9 -a 0 -x {1.0 2.0 6 ------- null}
d -t 0.563268 -s 0 -d 5 -p tcp -e 1040 -c 0 -i 9 -a 0 -x {1.0 2.0 6 ------- null}
r -t 0.60002 -s 5 -d 2 -p tcp -e 1040 -c 0 -i 6 -a 0 -x {1.0 2.0 3 ------- null}
h -t 0.60002 -s 2 -d 5 -p ack -e 40 -c 0 -i 10 -a 0 -x {2.0 1.0 3 ------- null}
r -t 0.604436 -s 5 -d 2 -p tcp -e 1040 -c 0 -i 7 -a 0 -x {1.0 2.0 4 ------- null}
h -t 0.604436 -s 2 -d 5 -p ack -e 40 -c 0 -i 11 -a 0 -x {2.0 1.0 4 ------- null}
r -t 0.608852 -s 5 -d 2 -p tcp -e 1040 -c 0 -i 8 -a 0 -x {1.0 2.0 5 ------- null}
h -t 0.608852 -s 2 -d 5 -p ack -e 40 -c 0 -i 12 -a 0 -x {2.0 1.0 5 ------- null}
r -t 0.613268 -s 5 -d 2 -p tcp -e 1040 -c 0 -i 9 -a 0 -x {1.0 2.0 6 ------- null}
h -t 0.613268 -s 2 -d 5 -p ack -e 40 -c 0 -i 13 -a 0 -x {2.0 1.0 6 ------- null}
+ -t 0.65002 -s 2 -d 5 -p ack -e 40 -c 0 -i 10 -a 0 -x {2.0 1.0 3 ------- null}
- -t 0.65002 -s 2 -d 5 -p ack -e 40 -c 0 -i 10 -a 0 -x {2.0 1.0 3 ------- null}
h -t 0.65002 -s 2 -d 5 -p ack -e 40 -c 0 -i 10 -a 0 -x {2.0 1.0 -1 ------- null}
d -t 0.650024 -s 4 -d 5 -p ack -e 40 -c 0 -i 10 -a 0 -x {2.0 1.0 3 ------- null}
d -t 0.650024 -s 3 -d 5 -p ack -e 40 -c 0 -i 10 -a 0 -x {2.0 1.0 3 ------- null}
d -t 0.650024 -s 0 -d 5 -p ack -e 40 -c 0 -i 10 -a 0 -x {2.0 1.0 3 ------- null}
+ -t 0.654436 -s 2 -d 5 -p ack -e 40 -c 0 -i 11 -a 0 -x {2.0 1.0 4 ------- null}
- -t 0.654436 -s 2 -d 5 -p ack -e 40 -c 0 -i 11 -a 0 -x {2.0 1.0 4 ------- null}
h -t 0.654436 -s 2 -d 5 -p ack -e 40 -c 0 -i 11 -a 0 -x {2.0 1.0 -1 ------- null}
d -t 0.65444 -s 4 -d 5 -p ack -e 40 -c 0 -i 11 -a 0 -x {2.0 1.0 4 ------- null}
d -t 0.65444 -s 3 -d 5 -p ack -e 40 -c 0 -i 11 -a 0 -x {2.0 1.0 4 ------- null}
d -t 0.65444 -s 0 -d 5 -p ack -e 40 -c 0 -i 11 -a 0 -x {2.0 1.0 4 ------- null}
+ -t 0.658852 -s 2 -d 5 -p ack -e 40 -c 0 -i 12 -a 0 -x {2.0 1.0 5 ------- null}
- -t 0.658852 -s 2 -d 5 -p ack -e 40 -c 0 -i 12 -a 0 -x {2.0 1.0 5 ------- null}
h -t 0.658852 -s 2 -d 5 -p ack -e 40 -c 0 -i 12 -a 0 -x {2.0 1.0 -1 ------- null}
d -t 0.658856 -s 4 -d 5 -p ack -e 40 -c 0 -i 12 -a 0 -x {2.0 1.0 5 ------- null}
d -t 0.658856 -s 3 -d 5 -p ack -e 40 -c 0 -i 12 -a 0 -x {2.0 1.0 5 ------- null}
d -t 0.658856 -s 0 -d 5 -p ack -e 40 -c 0 -i 12 -a 0 -x {2.0 1.0 5 ------- null}
+ -t 0.663268 -s 2 -d 5 -p ack -e 40 -c 0 -i 13 -a 0 -x {2.0 1.0 6 ------- null}
- -t 0.663268 -s 2 -d 5 -p ack -e 40 -c 0 -i 13 -a 0 -x {2.0 1.0 6 ------- null}
h -t 0.663268 -s 2 -d 5 -p ack -e 40 -c 0 -i 13 -a 0 -x {2.0 1.0 -1 ------- null}
d -t 0.663272 -s 4 -d 5 -p ack -e 40 -c 0 -i 13 -a 0 -x {2.0 1.0 6 ------- null}
d -t 0.663272 -s 3 -d 5 -p ack -e 40 -c 0 -i 13 -a 0 -x {2.0 1.0 6 ------- null}
d -t 0.663272 -s 0 -d 5 -p ack -e 40 -c 0 -i 13 -a 0 -x {2.0 1.0 6 ------- null}
r -t 0.700024 -s 5 -d 1 -p ack -e 40 -c 0 -i 10 -a 0 -x {2.0 1.0 3 ------- null}
h -t 0.700024 -s 1 -d 5 -p tcp -e 1040 -c 0 -i 14 -a 0 -x {1.0 2.0 7 ------- null}
h -t 0.700024 -s 1 -d 5 -p tcp -e 1040 -c 0 -i 15 -a 0 -x {1.0 2.0 8 ------- null}
r -t 0.70444 -s 5 -d 1 -p ack -e 40 -c 0 -i 11 -a 0 -x {2.0 1.0 4 ------- null}
h -t 0.70444 -s 1 -d 5 -p tcp -e 1040 -c 0 -i 16 -a 0 -x {1.0 2.0 9 ------- null}
h -t 0.70444 -s 1 -d 5 -p tcp -e 1040 -c 0 -i 17 -a 0 -x {1.0 2.0 10 ------- null}
r -t 0.708856 -s 5 -d 1 -p ack -e 40 -c 0 -i 12 -a 0 -x {2.0 1.0 5 ------- null}
h -t 0.708856 -s 1 -d 5 -p tcp -e 1040 -c 0 -i 18 -a 0 -x {1.0 2.0 11 ------- null}
h -t 0.708856 -s 1 -d 5 -p tcp -e 1040 -c 0 -i 19 -a 0 -x {1.0 2.0 12 ------- null}
r -t 0.713272 -s 5 -d 1 -p ack -e 40 -c 0 -i 13 -a 0 -x {2.0 1.0 6 ------- null}
h -t 0.713272 -s 1 -d 5 -p tcp -e 1040 -c 0 -i 20 -a 0 -x {1.0 2.0 13 ------- null}
h -t 0.713272 -s 1 -d 5 -p tcp -e 1040 -c 0 -i 21 -a 0 -x {1.0 2.0 14 ------- null}
+ -t 0.750024 -s 1 -d 5 -p tcp -e 1040 -c 0 -i 14 -a 0 -x {1.0 2.0 7 ------- null}
- -t 0.750024 -s 1 -d 5 -p tcp -e 1040 -c 0 -i 14 -a 0 -x {1.0 2.0 7 ------- null}
h -t 0.750024 -s 1 -d 5 -p tcp -e 1040 -c 0 -i 14 -a 0 -x {1.0 2.0 -1 ------- null}
+ -t 0.750024 -s 1 -d 5 -p tcp -e 1040 -c 0 -i 15 -a 0 -x {1.0 2.0 8 ------- null}
d -t 0.750028 -s 4 -d 5 -p tcp -e 1040 -c 0 -i 14 -a 0 -x {1.0 2.0 7 ------- null}
d -t 0.750028 -s 3 -d 5 -p tcp -e 1040 -c 0 -i 14 -a 0 -x {1.0 2.0 7 ------- null}
d -t 0.750028 -s 0 -d 5 -p tcp -e 1040 -c 0 -i 14 -a 0 -x {1.0 2.0 7 ------- null}
+ -t 0.75444 -s 1 -d 5 -p tcp -e 1040 -c 0 -i 16 -a 0 -x {1.0 2.0 9 ------- null}
+ -t 0.75444 -s 1 -d 5 -p tcp -e 1040 -c 0 -i 17 -a 0 -x {1.0 2.0 10 ------- null}
- -t 0.75444 -s 1 -d 5 -p tcp -e 1040 -c 0 -i 15 -a 0 -x {1.0 2.0 8 ------- null}
h -t 0.75444 -s 1 -d 5 -p tcp -e 1040 -c 0 -i 15 -a 0 -x {1.0 2.0 -1 ------- null}
d -t 0.754444 -s 4 -d 5 -p tcp -e 1040 -c 0 -i 15 -a 0 -x {1.0 2.0 8 ------- null}
d -t 0.754444 -s 3 -d 5 -p tcp -e 1040 -c 0 -i 15 -a 0 -x {1.0 2.0 8 ------- null}
d -t 0.754444 -s 0 -d 5 -p tcp -e 1040 -c 0 -i 15 -a 0 -x {1.0 2.0 8 ------- null}
+ -t 0.758856 -s 1 -d 5 -p tcp -e 1040 -c 0 -i 18 -a 0 -x {1.0 2.0 11 ------- null}
+ -t 0.758856 -s 1 -d 5 -p tcp -e 1040 -c 0 -i 19 -a 0 -x {1.0 2.0 12 ------- null}
- -t 0.758856 -s 1 -d 5 -p tcp -e 1040 -c 0 -i 16 -a 0 -x {1.0 2.0 9 ------- null}
h -t 0.758856 -s 1 -d 5 -p tcp -e 1040 -c 0 -i 16 -a 0 -x {1.0 2.0 -1 ------- null}
d -t 0.75886 -s 4 -d 5 -p tcp -e 1040 -c 0 -i 16 -a 0 -x {1.0 2.0 9 ------- null}
d -t 0.75886 -s 3 -d 5 -p tcp -e 1040 -c 0 -i 16 -a 0 -x {1.0 2.0 9 ------- null}
d -t 0.75886 -s 0 -d 5 -p tcp -e 1040 -c 0 -i 16 -a 0 -x {1.0 2.0 9 ------- null}
+ -t 0.763272 -s 1 -d 5 -p tcp -e 1040 -c 0 -i 20 -a 0 -x {1.0 2.0 13 ------- null}
+ -t 0.763272 -s 1 -d 5 -p tcp -e 1040 -c 0 -i 21 -a 0 -x {1.0 2.0 14 ------- null}
- -t 0.763272 -s 1 -d 5 -p tcp -e 1040 -c 0 -i 17 -a 0 -x {1.0 2.0 10 ------- null}
h -t 0.763272 -s 1 -d 5 -p tcp -e 1040 -c 0 -i 17 -a 0 -x {1.0 2.0 -1 ------- null}
d -t 0.763276 -s 4 -d 5 -p tcp -e 1040 -c 0 -i 17 -a 0 -x {1.0 2.0 10 ------- null}
d -t 0.763276 -s 3 -d 5 -p tcp -e 1040 -c 0 -i 17 -a 0 -x {1.0 2.0 10 ------- null}
d -t 0.763276 -s 0 -d 5 -p tcp -e 1040 -c 0 -i 17 -a 0 -x {1.0 2.0 10 ------- null}
- -t 0.767688 -s 1 -d 5 -p tcp -e 1040 -c 0 -i 18 -a 0 -x {1.0 2.0 11 ------- null}
h -t 0.767688 -s 1 -d 5 -p tcp -e 1040 -c 0 -i 18 -a 0 -x {1.0 2.0 -1 ------- null}
d -t 0.767692 -s 4 -d 5 -p tcp -e 1040 -c 0 -i 18 -a 0 -x {1.0 2.0 11 ------- null}
d -t 0.767692 -s 3 -d 5 -p tcp -e 1040 -c 0 -i 18 -a 0 -x {1.0 2.0 11 ------- null}
d -t 0.767692 -s 0 -d 5 -p tcp -e 1040 -c 0 -i 18 -a 0 -x {1.0 2.0 11 ------- null}
- -t 0.772104 -s 1 -d 5 -p tcp -e 1040 -c 0 -i 19 -a 0 -x {1.0 2.0 12 ------- null}
h -t 0.772104 -s 1 -d 5 -p tcp -e 1040 -c 0 -i 19 -a 0 -x {1.0 2.0 -1 ------- null}
d -t 0.772108 -s 4 -d 5 -p tcp -e 1040 -c 0 -i 19 -a 0 -x {1.0 2.0 12 ------- null}
d -t 0.772108 -s 3 -d 5 -p tcp -e 1040 -c 0 -i 19 -a 0 -x {1.0 2.0 12 ------- null}
d -t 0.772108 -s 0 -d 5 -p tcp -e 1040 -c 0 -i 19 -a 0 -x {1.0 2.0 12 ------- null}
- -t 0.77652 -s 1 -d 5 -p tcp -e 1040 -c 0 -i 20 -a 0 -x {1.0 2.0 13 ------- null}
h -t 0.77652 -s 1 -d 5 -p tcp -e 1040 -c 0 -i 20 -a 0 -x {1.0 2.0 -1 ------- null}
d -t 0.776524 -s 4 -d 5 -p tcp -e 1040 -c 0 -i 20 -a 0 -x {1.0 2.0 13 ------- null}
d -t 0.776524 -s 3 -d 5 -p tcp -e 1040 -c 0 -i 20 -a 0 -x {1.0 2.0 13 ------- null}
d -t 0.776524 -s 0 -d 5 -p tcp -e 1040 -c 0 -i 20 -a 0 -x {1.0 2.0 13 ------- null}
- -t 0.780936 -s 1 -d 5 -p tcp -e 1040 -c 0 -i 21 -a 0 -x {1.0 2.0 14 ------- null}
h -t 0.780936 -s 1 -d 5 -p tcp -e 1040 -c 0 -i 21 -a 0 -x {1.0 2.0 -1 ------- null}
d -t 0.78094 -s 4 -d 5 -p tcp -e 1040 -c 0 -i 21 -a 0 -x {1.0 2.0 14 ------- null}
d -t 0.78094 -s 3 -d 5 -p tcp -e 1040 -c 0 -i 21 -a 0 -x {1.0 2.0 14 ------- null}
d -t 0.78094 -s 0 -d 5 -p tcp -e 1040 -c 0 -i 21 -a 0 -x {1.0 2.0 14 ------- null}
r -t 0.800028 -s 5 -d 2 -p tcp -e 1040 -c 0 -i 14 -a 0 -x {1.0 2.0 7 ------- null}
h -t 0.800028 -s 2 -d 5 -p ack -e 40 -c 0 -i 22 -a 0 -x {2.0 1.0 7 ------- null}
r -t 0.804444 -s 5 -d 2 -p tcp -e 1040 -c 0 -i 15 -a 0 -x {1.0 2.0 8 ------- null}
h -t 0.804444 -s 2 -d 5 -p ack -e 40 -c 0 -i 23 -a 0 -x {2.0 1.0 8 ------- null}
r -t 0.80886 -s 5 -d 2 -p tcp -e 1040 -c 0 -i 16 -a 0 -x {1.0 2.0 9 ------- null}
h -t 0.80886 -s 2 -d 5 -p ack -e 40 -c 0 -i 24 -a 0 -x {2.0 1.0 9 ------- null}
r -t 0.813276 -s 5 -d 2 -p tcp -e 1040 -c 0 -i 17 -a 0 -x {1.0 2.0 10 ------- null}
h -t 0.813276 -s 2 -d 5 -p ack -e 40 -c 0 -i 25 -a 0 -x {2.0 1.0 10 ------- null}
r -t 0.817692 -s 5 -d 2 -p tcp -e 1040 -c 0 -i 18 -a 0 -x {1.0 2.0 11 ------- null}
h -t 0.817692 -s 2 -d 5 -p ack -e 40 -c 0 -i 26 -a 0 -x {2.0 1.0 11 ------- null}
r -t 0.822108 -s 5 -d 2 -p tcp -e 1040 -c 0 -i 19 -a 0 -x {1.0 2.0 12 ------- null}
h -t 0.822108 -s 2 -d 5 -p ack -e 40 -c 0 -i 27 -a 0 -x {2.0 1.0 12 ------- null}
r -t 0.826524 -s 5 -d 2 -p tcp -e 1040 -c 0 -i 20 -a 0 -x {1.0 2.0 13 ------- null}
h -t 0.826524 -s 2 -d 5 -p ack -e 40 -c 0 -i 28 -a 0 -x {2.0 1.0 13 ------- null}
r -t 0.83094 -s 5 -d 2 -p tcp -e 1040 -c 0 -i 21 -a 0 -x {1.0 2.0 14 ------- null}
h -t 0.83094 -s 2 -d 5 -p ack -e 40 -c 0 -i 29 -a 0 -x {2.0 1.0 14 ------- null}
+ -t 0.850028 -s 2 -d 5 -p ack -e 40 -c 0 -i 22 -a 0 -x {2.0 1.0 7 ------- null}
- -t 0.850028 -s 2 -d 5 -p ack -e 40 -c 0 -i 22 -a 0 -x {2.0 1.0 7 ------- null}
h -t 0.850028 -s 2 -d 5 -p ack -e 40 -c 0 -i 22 -a 0 -x {2.0 1.0 -1 ------- null}
d -t 0.850032 -s 4 -d 5 -p ack -e 40 -c 0 -i 22 -a 0 -x {2.0 1.0 7 ------- null}
d -t 0.850032 -s 3 -d 5 -p ack -e 40 -c 0 -i 22 -a 0 -x {2.0 1.0 7 ------- null}
d -t 0.850032 -s 0 -d 5 -p ack -e 40 -c 0 -i 22 -a 0 -x {2.0 1.0 7 ------- null}
+ -t 0.854444 -s 2 -d 5 -p ack -e 40 -c 0 -i 23 -a 0 -x {2.0 1.0 8 ------- null}
- -t 0.854444 -s 2 -d 5 -p ack -e 40 -c 0 -i 23 -a 0 -x {2.0 1.0 8 ------- null}
h -t 0.854444 -s 2 -d 5 -p ack -e 40 -c 0 -i 23 -a 0 -x {2.0 1.0 -1 ------- null}
d -t 0.854448 -s 4 -d 5 -p ack -e 40 -c 0 -i 23 -a 0 -x {2.0 1.0 8 ------- null}
d -t 0.854448 -s 3 -d 5 -p ack -e 40 -c 0 -i 23 -a 0 -x {2.0 1.0 8 ------- null}
d -t 0.854448 -s 0 -d 5 -p ack -e 40 -c 0 -i 23 -a 0 -x {2.0 1.0 8 ------- null}
+ -t 0.85886 -s 2 -d 5 -p ack -e 40 -c 0 -i 24 -a 0 -x {2.0 1.0 9 ------- null}
- -t 0.85886 -s 2 -d 5 -p ack -e 40 -c 0 -i 24 -a 0 -x {2.0 1.0 9 ------- null}
h -t 0.85886 -s 2 -d 5 -p ack -e 40 -c 0 -i 24 -a 0 -x {2.0 1.0 -1 ------- null}
d -t 0.858864 -s 4 -d 5 -p ack -e 40 -c 0 -i 24 -a 0 -x {2.0 1.0 9 ------- null}
d -t 0.858864 -s 3 -d 5 -p ack -e 40 -c 0 -i 24 -a 0 -x {2.0 1.0 9 ------- null}
d -t 0.858864 -s 0 -d 5 -p ack -e 40 -c 0 -i 24 -a 0 -x {2.0 1.0 9 ------- null}
+ -t 0.863276 -s 2 -d 5 -p ack -e 40 -c 0 -i 25 -a 0 -x {2.0 1.0 10 ------- null}
- -t 0.863276 -s 2 -d 5 -p ack -e 40 -c 0 -i 25 -a 0 -x {2.0 1.0 10 ------- null}
h -t 0.863276 -s 2 -d 5 -p ack -e 40 -c 0 -i 25 -a 0 -x {2.0 1.0 -1 ------- null}
d -t 0.86328 -s 4 -d 5 -p ack -e 40 -c 0 -i 25 -a 0 -x {2.0 1.0 10 ------- null}
d -t 0.86328 -s 3 -d 5 -p ack -e 40 -c 0 -i 25 -a 0 -x {2.0 1.0 10 ------- null}
d -t 0.86328 -s 0 -d 5 -p ack -e 40 -c 0 -i 25 -a 0 -x {2.0 1.0 10 ------- null}
+ -t 0.867692 -s 2 -d 5 -p ack -e 40 -c 0 -i 26 -a 0 -x {2.0 1.0 11 ------- null}
- -t 0.867692 -s 2 -d 5 -p ack -e 40 -c 0 -i 26 -a 0 -x {2.0 1.0 11 ------- null}
h -t 0.867692 -s 2 -d 5 -p ack -e 40 -c 0 -i 26 -a 0 -x {2.0 1.0 -1 ------- null}
d -t 0.867696 -s 4 -d 5 -p ack -e 40 -c 0 -i 26 -a 0 -x {2.0 1.0 11 ------- null}
d -t 0.867696 -s 3 -d 5 -p ack -e 40 -c 0 -i 26 -a 0 -x {2.0 1.0 11 ------- null}
d -t 0.867696 -s 0 -d 5 -p ack -e 40 -c 0 -i 26 -a 0 -x {2.0 1.0 11 ------- null}
+ -t 0.872108 -s 2 -d 5 -p ack -e 40 -c 0 -i 27 -a 0 -x {2.0 1.0 12 ------- null}
- -t 0.872108 -s 2 -d 5 -p ack -e 40 -c 0 -i 27 -a 0 -x {2.0 1.0 12 ------- null}
h -t 0.872108 -s 2 -d 5 -p ack -e 40 -c 0 -i 27 -a 0 -x {2.0 1.0 -1 ------- null}
d -t 0.872112 -s 4 -d 5 -p ack -e 40 -c 0 -i 27 -a 0 -x {2.0 1.0 12 ------- null}
d -t 0.872112 -s 3 -d 5 -p ack -e 40 -c 0 -i 27 -a 0 -x {2.0 1.0 12 ------- null}
d -t 0.872112 -s 0 -d 5 -p ack -e 40 -c 0 -i 27 -a 0 -x {2.0 1.0 12 ------- null}
+ -t 0.876524 -s 2 -d 5 -p ack -e 40 -c 0 -i 28 -a 0 -x {2.0 1.0 13 ------- null}
- -t 0.876524 -s 2 -d 5 -p ack -e 40 -c 0 -i 28 -a 0 -x {2.0 1.0 13 ------- null}
h -t 0.876524 -s 2 -d 5 -p ack -e 40 -c 0 -i 28 -a 0 -x {2.0 1.0 -1 ------- null}
d -t 0.876528 -s 4 -d 5 -p ack -e 40 -c 0 -i 28 -a 0 -x {2.0 1.0 13 ------- null}
d -t 0.876528 -s 3 -d 5 -p ack -e 40 -c 0 -i 28 -a 0 -x {2.0 1.0 13 ------- null}
d -t 0.876528 -s 0 -d 5 -p ack -e 40 -c 0 -i 28 -a 0 -x {2.0 1.0 13 ------- null}
+ -t 0.88094 -s 2 -d 5 -p ack -e 40 -c 0 -i 29 -a 0 -x {2.0 1.0 14 ------- null}
- -t 0.88094 -s 2 -d 5 -p ack -e 40 -c 0 -i 29 -a 0 -x {2.0 1.0 14 ------- null}
h -t 0.88094 -s 2 -d 5 -p ack -e 40 -c 0 -i 29 -a 0 -x {2.0 1.0 -1 ------- null}
d -t 0.880944 -s 4 -d 5 -p ack -e 40 -c 0 -i 29 -a 0 -x {2.0 1.0 14 ------- null}
d -t 0.880944 -s 3 -d 5 -p ack -e 40 -c 0 -i 29 -a 0 -x {2.0 1.0 14 ------- null}
d -t 0.880944 -s 0 -d 5 -p ack -e 40 -c 0 -i 29 -a 0 -x {2.0 1.0 14 ------- null}
r -t 0.900032 -s 5 -d 1 -p ack -e 40 -c 0 -i 22 -a 0 -x {2.0 1.0 7 ------- null}
h -t 0.900032 -s 1 -d 5 -p tcp -e 1040 -c 0 -i 30 -a 0 -x {1.0 2.0 15 ------- null}
h -t 0.900032 -s 1 -d 5 -p tcp -e 1040 -c 0 -i 31 -a 0 -x {1.0 2.0 16 ------- null}
r -t 0.904448 -s 5 -d 1 -p ack -e 40 -c 0 -i 23 -a 0 -x {2.0 1.0 8 ------- null}
h -t 0.904448 -s 1 -d 5 -p tcp -e 1040 -c 0 -i 32 -a 0 -x {1.0 2.0 17 ------- null}
h -t 0.904448 -s 1 -d 5 -p tcp -e 1040 -c 0 -i 33 -a 0 -x {1.0 2.0 18 ------- null}
r -t 0.908864 -s 5 -d 1 -p ack -e 40 -c 0 -i 24 -a 0 -x {2.0 1.0 9 ------- null}
h -t 0.908864 -s 1 -d 5 -p tcp -e 1040 -c 0 -i 34 -a 0 -x {1.0 2.0 19 ------- null}
h -t 0.908864 -s 1 -d 5 -p tcp -e 1040 -c 0 -i 35 -a 0 -x {1.0 2.0 20 ------- null}
r -t 0.91328 -s 5 -d 1 -p ack -e 40 -c 0 -i 25 -a 0 -x {2.0 1.0 10 ------- null}
h -t 0.91328 -s 1 -d 5 -p tcp -e 1040 -c 0 -i 36 -a 0 -x {1.0 2.0 21 ------- null}
h -t 0.91328 -s 1 -d 5 -p tcp -e 1040 -c 0 -i 37 -a 0 -x {1.0 2.0 22 ------- null}
r -t 0.917696 -s 5 -d 1 -p ack -e 40 -c 0 -i 26 -a 0 -x {2.0 1.0 11 ------- null}
h -t 0.917696 -s 1 -d 5 -p tcp -e 1040 -c 0 -i 38 -a 0 -x {1.0 2.0 23 ------- null}
h -t 0.917696 -s 1 -d 5 -p tcp -e 1040 -c 0 -i 39 -a 0 -x {1.0 2.0 24 ------- null}
r -t 0.922112 -s 5 -d 1 -p ack -e 40 -c 0 -i 27 -a 0 -x {2.0 1.0 12 ------- null}
h -t 0.922112 -s 1 -d 5 -p tcp -e 1040 -c 0 -i 40 -a 0 -x {1.0 2.0 25 ------- null}
h -t 0.922112 -s 1 -d 5 -p tcp -e 1040 -c 0 -i 41 -a 0 -x {1.0 2.0 26 ------- null}
r -t 0.926528 -s 5 -d 1 -p ack -e 40 -c 0 -i 28 -a 0 -x {2.0 1.0 13 ------- null}
h -t 0.926528 -s 1 -d 5 -p tcp -e 1040 -c 0 -i 42 -a 0 -x {1.0 2.0 27 ------- null}
h -t 0.926528 -s 1 -d 5 -p tcp -e 1040 -c 0 -i 43 -a 0 -x {1.0 2.0 28 ------- null}
r -t 0.930944 -s 5 -d 1 -p ack -e 40 -c 0 -i 29 -a 0 -x {2.0 1.0 14 ------- null}
h -t 0.930944 -s 1 -d 5 -p tcp -e 1040 -c 0 -i 44 -a 0 -x {1.0 2.0 29 ------- null}
h -t 0.930944 -s 1 -d 5 -p tcp -e 1040 -c 0 -i 45 -a 0 -x {1.0 2.0 30 ------- null}
+ -t 0.950032 -s 1 -d 5 -p tcp -e 1040 -c 0 -i 30 -a 0 -x {1.0 2.0 15 ------- null}
- -t 0.950032 -s 1 -d 5 -p tcp -e 1040 -c 0 -i 30 -a 0 -x {1.0 2.0 15 ------- null}
h -t 0.950032 -s 1 -d 5 -p tcp -e 1040 -c 0 -i 30 -a 0 -x {1.0 2.0 -1 ------- null}
+ -t 0.950032 -s 1 -d 5 -p tcp -e 1040 -c 0 -i 31 -a 0 -x {1.0 2.0 16 ------- null}
d -t 0.950036 -s 4 -d 5 -p tcp -e 1040 -c 0 -i 30 -a 0 -x {1.0 2.0 15 ------- null}
d -t 0.950036 -s 3 -d 5 -p tcp -e 1040 -c 0 -i 30 -a 0 -x {1.0 2.0 15 ------- null}
d -t 0.950036 -s 0 -d 5 -p tcp -e 1040 -c 0 -i 30 -a 0 -x {1.0 2.0 15 ------- null}
+ -t 0.954448 -s 1 -d 5 -p tcp -e 1040 -c 0 -i 32 -a 0 -x {1.0 2.0 17 ------- null}
+ -t 0.954448 -s 1 -d 5 -p tcp -e 1040 -c 0 -i 33 -a 0 -x {1.0 2.0 18 ------- null}
- -t 0.954448 -s 1 -d 5 -p tcp -e 1040 -c 0 -i 31 -a 0 -x {1.0 2.0 16 ------- null}
h -t 0.954448 -s 1 -d 5 -p tcp -e 1040 -c 0 -i 31 -a 0 -x {1.0 2.0 -1 ------- null}
d -t 0.954452 -s 4 -d 5 -p tcp -e 1040 -c 0 -i 31 -a 0 -x {1.0 2.0 16 ------- null}
d -t 0.954452 -s 3 -d 5 -p tcp -e 1040 -c 0 -i 31 -a 0 -x {1.0 2.0 16 ------- null}
d -t 0.954452 -s 0 -d 5 -p tcp -e 1040 -c 0 -i 31 -a 0 -x {1.0 2.0 16 ------- null}
+ -t 0.958864 -s 1 -d 5 -p tcp -e 1040 -c 0 -i 34 -a 0 -x {1.0 2.0 19 ------- null}
+ -t 0.958864 -s 1 -d 5 -p tcp -e 1040 -c 0 -i 35 -a 0 -x {1.0 2.0 20 ------- null}
- -t 0.958864 -s 1 -d 5 -p tcp -e 1040 -c 0 -i 32 -a 0 -x {1.0 2.0 17 ------- null}
h -t 0.958864 -s 1 -d 5 -p tcp -e 1040 -c 0 -i 32 -a 0 -x {1.0 2.0 -1 ------- null}
d -t 0.958868 -s 4 -d 5 -p tcp -e 1040 -c 0 -i 32 -a 0 -x {1.0 2.0 17 ------- null}
d -t 0.958868 -s 3 -d 5 -p tcp -e 1040 -c 0 -i 32 -a 0 -x {1.0 2.0 17 ------- null}
d -t 0.958868 -s 0 -d 5 -p tcp -e 1040 -c 0 -i 32 -a 0 -x {1.0 2.0 17 ------- null}
+ -t 0.96328 -s 1 -d 5 -p tcp -e 1040 -c 0 -i 36 -a 0 -x {1.0 2.0 21 ------- null}
+ -t 0.96328 -s 1 -d 5 -p tcp -e 1040 -c 0 -i 37 -a 0 -x {1.0 2.0 22 ------- null}
- -t 0.96328 -s 1 -d 5 -p tcp -e 1040 -c 0 -i 33 -a 0 -x {1.0 2.0 18 ------- null}
h -t 0.96328 -s 1 -d 5 -p tcp -e 1040 -c 0 -i 33 -a 0 -x {1.0 2.0 -1 ------- null}
d -t 0.963284 -s 4 -d 5 -p tcp -e 1040 -c 0 -i 33 -a 0 -x {1.0 2.0 18 ------- null}
d -t 0.963284 -s 3 -d 5 -p tcp -e 1040 -c 0 -i 33 -a 0 -x {1.0 2.0 18 ------- null}
d -t 0.963284 -s 0 -d 5 -p tcp -e 1040 -c 0 -i 33 -a 0 -x {1.0 2.0 18 ------- null}
+ -t 0.967696 -s 1 -d 5 -p tcp -e 1040 -c 0 -i 38 -a 0 -x {1.0 2.0 23 ------- null}
+ -t 0.967696 -s 1 -d 5 -p tcp -e 1040 -c 0 -i 39 -a 0 -x {1.0 2.0 24 ------- null}
- -t 0.967696 -s 1 -d 5 -p tcp -e 1040 -c 0 -i 34 -a 0 -x {1.0 2.0 19 ------- null}
h -t 0.967696 -s 1 -d 5 -p tcp -e 1040 -c 0 -i 34 -a 0 -x {1.0 2.0 -1 ------- null}
d -t 0.9677 -s 4 -d 5 -p tcp -e 1040 -c 0 -i 34 -a 0 -x {1.0 2.0 19 ------- null}
d -t 0.9677 -s 3 -d 5 -p tcp -e 1040 -c 0 -i 34 -a 0 -x {1.0 2.0 19 ------- null}
d -t 0.9677 -s 0 -d 5 -p tcp -e 1040 -c 0 -i 34 -a 0 -x {1.0 2.0 19 ------- null}
+ -t 0.972112 -s 1 -d 5 -p tcp -e 1040 -c 0 -i 40 -a 0 -x {1.0 2.0 25 ------- null}
+ -t 0.972112 -s 1 -d 5 -p tcp -e 1040 -c 0 -i 41 -a 0 -x {1.0 2.0 26 ------- null}
- -t 0.972112 -s 1 -d 5 -p tcp -e 1040 -c 0 -i 35 -a 0 -x {1.0 2.0 20 ------- null}
h -t 0.972112 -s 1 -d 5 -p tcp -e 1040 -c 0 -i 35 -a 0 -x {1.0 2.0 -1 ------- null}
d -t 0.972116 -s 4 -d 5 -p tcp -e 1040 -c 0 -i 35 -a 0 -x {1.0 2.0 20 ------- null}
d -t 0.972116 -s 3 -d 5 -p tcp -e 1040 -c 0 -i 35 -a 0 -x {1.0 2.0 20 ------- null}
d -t 0.972116 -s 0 -d 5 -p tcp -e 1040 -c 0 -i 35 -a 0 -x {1.0 2.0 20 ------- null}
+ -t 0.976528 -s 1 -d 5 -p tcp -e 1040 -c 0 -i 42 -a 0 -x {1.0 2.0 27 ------- null}
+ -t 0.976528 -s 1 -d 5 -p tcp -e 1040 -c 0 -i 43 -a 0 -x {1.0 2.0 28 ------- null}
- -t 0.976528 -s 1 -d 5 -p tcp -e 1040 -c 0 -i 36 -a 0 -x {1.0 2.0 21 ------- null}
h -t 0.976528 -s 1 -d 5 -p tcp -e 1040 -c 0 -i 36 -a 0 -x {1.0 2.0 -1 ------- null}
d -t 0.976532 -s 4 -d 5 -p tcp -e 1040 -c 0 -i 36 -a 0 -x {1.0 2.0 21 ------- null}
d -t 0.976532 -s 3 -d 5 -p tcp -e 1040 -c 0 -i 36 -a 0 -x {1.0 2.0 21 ------- null}
d -t 0.976532 -s 0 -d 5 -p tcp -e 1040 -c 0 -i 36 -a 0 -x {1.0 2.0 21 ------- null}
+ -t 0.980944 -s 1 -d 5 -p tcp -e 1040 -c 0 -i 44 -a 0 -x {1.0 2.0 29 ------- null}
+ -t 0.980944 -s 1 -d 5 -p tcp -e 1040 -c 0 -i 45 -a 0 -x {1.0 2.0 30 ------- null}
- -t 0.980944 -s 1 -d 5 -p tcp -e 1040 -c 0 -i 37 -a 0 -x {1.0 2.0 22 ------- null}
h -t 0.980944 -s 1 -d 5 -p tcp -e 1040 -c 0 -i 37 -a 0 -x {1.0 2.0 -1 ------- null}
d -t 0.980948 -s 4 -d 5 -p tcp -e 1040 -c 0 -i 37 -a 0 -x {1.0 2.0 22 ------- null}
d -t 0.980948 -s 3 -d 5 -p tcp -e 1040 -c 0 -i 37 -a 0 -x {1.0 2.0 22 ------- null}
d -t 0.980948 -s 0 -d 5 -p tcp -e 1040 -c 0 -i 37 -a 0 -x {1.0 2.0 22 ------- null}
- -t 0.98536 -s 1 -d 5 -p tcp -e 1040 -c 0 -i 38 -a 0 -x {1.0 2.0 23 ------- null}
h -t 0.98536 -s 1 -d 5 -p tcp -e 1040 -c 0 -i 38 -a 0 -x {1.0 2.0 -1 ------- null}
d -t 0.985364 -s 4 -d 5 -p tcp -e 1040 -c 0 -i 38 -a 0 -x {1.0 2.0 23 ------- null}
d -t 0.985364 -s 3 -d 5 -p tcp -e 1040 -c 0 -i 38 -a 0 -x {1.0 2.0 23 ------- null}
d -t 0.985364 -s 0 -d 5 -p tcp -e 1040 -c 0 -i 38 -a 0 -x {1.0 2.0 23 ------- null}
- -t 0.989776 -s 1 -d 5 -p tcp -e 1040 -c 0 -i 39 -a 0 -x {1.0 2.0 24 ------- null}
h -t 0.989776 -s 1 -d 5 -p tcp -e 1040 -c 0 -i 39 -a 0 -x {1.0 2.0 -1 ------- null}
d -t 0.98978 -s 4 -d 5 -p tcp -e 1040 -c 0 -i 39 -a 0 -x {1.0 2.0 24 ------- null}
d -t 0.98978 -s 3 -d 5 -p tcp -e 1040 -c 0 -i 39 -a 0 -x {1.0 2.0 24 ------- null}
d -t 0.98978 -s 0 -d 5 -p tcp -e 1040 -c 0 -i 39 -a 0 -x {1.0 2.0 24 ------- null}
- -t 0.994192 -s 1 -d 5 -p tcp -e 1040 -c 0 -i 40 -a 0 -x {1.0 2.0 25 ------- null}
h -t 0.994192 -s 1 -d 5 -p tcp -e 1040 -c 0 -i 40 -a 0 -x {1.0 2.0 -1 ------- null}
d -t 0.994196 -s 4 -d 5 -p tcp -e 1040 -c 0 -i 40 -a 0 -x {1.0 2.0 25 ------- null}
d -t 0.994196 -s 3 -d 5 -p tcp -e 1040 -c 0 -i 40 -a 0 -x {1.0 2.0 25 ------- null}
d -t 0.994196 -s 0 -d 5 -p tcp -e 1040 -c 0 -i 40 -a 0 -x {1.0 2.0 25 ------- null}
- -t 0.998608 -s 1 -d 5 -p tcp -e 1040 -c 0 -i 41 -a 0 -x {1.0 2.0 26 ------- null}
h -t 0.998608 -s 1 -d 5 -p tcp -e 1040 -c 0 -i 41 -a 0 -x {1.0 2.0 -1 ------- null}
d -t 0.998612 -s 4 -d 5 -p tcp -e 1040 -c 0 -i 41 -a 0 -x {1.0 2.0 26 ------- null}
d -t 0.998612 -s 3 -d 5 -p tcp -e 1040 -c 0 -i 41 -a 0 -x {1.0 2.0 26 ------- null}
d -t 0.998612 -s 0 -d 5 -p tcp -e 1040 -c 0 -i 41 -a 0 -x {1.0 2.0 26 ------- null}
r -t 1.000036 -s 5 -d 2 -p tcp -e 1040 -c 0 -i 30 -a 0 -x {1.0 2.0 15 ------- null}
h -t 1.000036 -s 2 -d 5 -p ack -e 40 -c 0 -i 46 -a 0 -x {2.0 1.0 15 ------- null}
- -t 1.003024 -s 1 -d 5 -p tcp -e 1040 -c 0 -i 42 -a 0 -x {1.0 2.0 27 ------- null}
h -t 1.003024 -s 1 -d 5 -p tcp -e 1040 -c 0 -i 42 -a 0 -x {1.0 2.0 -1 ------- null}
d -t 1.003028 -s 4 -d 5 -p tcp -e 1040 -c 0 -i 42 -a 0 -x {1.0 2.0 27 ------- null}
d -t 1.003028 -s 3 -d 5 -p tcp -e 1040 -c 0 -i 42 -a 0 -x {1.0 2.0 27 ------- null}
d -t 1.003028 -s 0 -d 5 -p tcp -e 1040 -c 0 -i 42 -a 0 -x {1.0 2.0 27 ------- null}
r -t 1.004452 -s 5 -d 2 -p tcp -e 1040 -c 0 -i 31 -a 0 -x {1.0 2.0 16 ------- null}
h -t 1.004452 -s 2 -d 5 -p ack -e 40 -c 0 -i 47 -a 0 -x {2.0 1.0 16 ------- null}
- -t 1.00744 -s 1 -d 5 -p tcp -e 1040 -c 0 -i 43 -a 0 -x {1.0 2.0 28 ------- null}
h -t 1.00744 -s 1 -d 5 -p tcp -e 1040 -c 0 -i 43 -a 0 -x {1.0 2.0 -1 ------- null}
d -t 1.007444 -s 4 -d 5 -p tcp -e 1040 -c 0 -i 43 -a 0 -x {1.0 2.0 28 ------- null}
d -t 1.007444 -s 3 -d 5 -p tcp -e 1040 -c 0 -i 43 -a 0 -x {1.0 2.0 28 ------- null}
d -t 1.007444 -s 0 -d 5 -p tcp -e 1040 -c 0 -i 43 -a 0 -x {1.0 2.0 28 ------- null}
r -t 1.008868 -s 5 -d 2 -p tcp -e 1040 -c 0 -i 32 -a 0 -x {1.0 2.0 17 ------- null}
h -t 1.008868 -s 2 -d 5 -p ack -e 40 -c 0 -i 48 -a 0 -x {2.0 1.0 17 ------- null}
- -t 1.011856 -s 1 -d 5 -p tcp -e 1040 -c 0 -i 44 -a 0 -x {1.0 2.0 29 ------- null}
h -t 1.011856 -s 1 -d 5 -p tcp -e 1040 -c 0 -i 44 -a 0 -x {1.0 2.0 -1 ------- null}
d -t 1.01186 -s 4 -d 5 -p tcp -e 1040 -c 0 -i 44 -a 0 -x {1.0 2.0 29 ------- null}
d -t 1.01186 -s 3 -d 5 -p tcp -e 1040 -c 0 -i 44 -a 0 -x {1.0 2.0 29 ------- null}
d -t 1.01186 -s 0 -d 5 -p tcp -e 1040 -c 0 -i 44 -a 0 -x {1.0 2.0 29 ------- null}
r -t 1.013284 -s 5 -d 2 -p tcp -e 1040 -c 0 -i 33 -a 0 -x {1.0 2.0 18 ------- null}
h -t 1.013284 -s 2 -d 5 -p ack -e 40 -c 0 -i 49 -a 0 -x {2.0 1.0 18 ------- null}